# vtk DataFile Version 4.2
vtk output
ASCII
DATASET UNSTRUCTURED_GRID
POINTS 28 float
67 153 0 65 135 0 63 109 0 
61 113 0 63 124 0 60 118 0 
61 114 0 63 94 0 63 100 0 
67 51 0 64 54 0 58 51 0 
61 53 0 63 37 0 44 0 0 
121 147 0 110 0 0 27 151 0 
73 125 0 71 125 0 78 150 0 
82 150 0 56 156 0 52 153 0 
56 126 0 55 125 0 70 124 0 
80 124 0 
METADATA
INFORMATION 2
NAME L2_NORM_RANGE LOCATION vtkDataArray
DATA 2 44 190.394 
NAME L2_NORM_FINITE_RANGE LOCATION vtkDataArray
DATA 2 44 190.394 

CELL_TYPES 0

POINT_DATA 28
SCALARS CriticalType int
LOOKUP_TABLE default
3 2 3 2 3 2 3 3 2 
3 2 3 2 0 1 0 1 0 
0 1 0 1 0 1 0 1 0 
1 
METADATA
INFORMATION 0

FIELD FieldData 5
NodeId 1 28 int
0 1 2 3 4 5 6 7 8 
9 10 11 12 13 14 15 16 17 
18 19 20 21 22 23 24 25 26 
27 
METADATA
INFORMATION 0

Scalar 1 28 float
0.756442 0.327258 0.622845 0.574476 0.622078 0.509883 0.600327 0.578213 0.553177 
0.340075 0.203746 0.338552 0.182486 0 0.0500295 7.24983e-05 0.0500481 0.000331545 
0.00648662 0.0583877 0.012389 0.193134 0.0126401 0.158218 0.0207243 0.0718238 0.0320378 
0.058402 
METADATA
INFORMATION 0

VertexId 1 28 int
19651 17345 14015 14525 15935 15164 14653 12095 12863 
6595 6976 6586 6845 4799 44 18937 110 19355 
16073 16071 19278 19282 20024 19636 16184 16055 15942 
15952 
METADATA
INFORMATION 0

RegionSize 1 28 int
424 552 10 5 27 216 0 12 26 
34 79 45 214 928 184 8473 6436 11325 
29 0 63 79 37 214 1 1952 1 
1603 
METADATA
INFORMATION 0

RegionSpan 1 28 int
18 81 4 13 6 17 1 6 18 
4 97 3 100 41 66 147 127 151 
2 9 4 97 5 100 1 28 1 
25 
METADATA
INFORMATION 0

