# vtk DataFile Version 4.2
vtk output
ASCII
DATASET UNSTRUCTURED_GRID
POINTS 26 float
68 154 0 65 136 0 62 125 0 
63 115 0 63 104 0 64 102 0 
63 94 0 67 51 0 64 54 0 
58 51 0 61 53 0 63 37 0 
41 0 0 118 148 0 80 0 0 
26 153 0 45 107 0 55 107 0 
69 125 0 80 124 0 56 125 0 
55 125 0 78 152 0 81 153 0 
56 157 0 51 154 0 
METADATA
INFORMATION 2
NAME L2_NORM_RANGE LOCATION vtkDataArray
DATA 2 41 189.283 
NAME L2_NORM_FINITE_RANGE LOCATION vtkDataArray
DATA 2 41 189.283 

CELL_TYPES 0

POINT_DATA 26
SCALARS CriticalType int
LOOKUP_TABLE default
3 2 3 2 3 2 3 3 2 
3 2 0 1 0 1 0 1 0 
0 1 0 1 0 1 0 1 
METADATA
INFORMATION 0

FIELD FieldData 5
NodeId 1 26 int
0 1 2 3 4 5 6 7 8 
9 10 11 12 13 14 15 16 17 
18 19 20 21 22 23 24 25 
METADATA
INFORMATION 0

Scalar 1 26 float
0.753372 0.327096 0.702185 0.494609 0.586036 0.543056 0.578016 0.34038 0.204564 
0.338272 0.181373 0 0.0500424 0.000167705 0.0500622 0.000696328 0.0325636 0.00221337 
0.0170526 0.0569561 0.0199064 0.0874756 0.0287997 0.185764 0.0314212 0.170217 
METADATA
INFORMATION 0

VertexId 1 26 int
19780 17473 16062 14783 13375 13120 12095 6595 6976 
6586 6845 4799 41 19062 80 19610 13741 13751 
16069 15952 16056 16055 19534 19665 20152 19763 
METADATA
INFORMATION 0

RegionSize 1 26 int
432 524 46 186 6 25 18 34 135 
45 107 946 36 8996 5764 3825 7358 49 
38 2681 2 1345 58 135 42 107 
METADATA
INFORMATION 0

RegionSpan 1 26 int
18 82 10 21 2 13 8 4 100 
3 101 43 39 152 124 49 107 10 
11 25 1 29 3 100 5 101 
METADATA
INFORMATION 0

