# vtk DataFile Version 4.2
vtk output
ASCII
DATASET UNSTRUCTURED_GRID
POINTS 26 float
67 154 0 66 138 0 64 128 0 
61 115 0 62 108 0 64 102 0 
63 92 0 67 51 0 64 54 0 
58 51 0 61 53 0 63 37 0 
43 0 0 121 148 0 82 0 0 
27 153 0 45 108 0 56 109 0 
56 157 0 52 155 0 78 152 0 
81 151 0 73 127 0 80 126 0 
57 126 0 56 126 0 
METADATA
INFORMATION 2
NAME L2_NORM_RANGE LOCATION vtkDataArray
DATA 2 43 191.167 
NAME L2_NORM_FINITE_RANGE LOCATION vtkDataArray
DATA 2 43 191.167 

CELL_TYPES 0

POINT_DATA 26
SCALARS CriticalType int
LOOKUP_TABLE default
3 2 3 2 3 2 3 3 2 
3 2 0 1 0 1 0 1 0 
0 1 0 1 0 1 0 1 
METADATA
INFORMATION 0

FIELD FieldData 5
NodeId 1 26 int
0 1 2 3 4 5 6 7 8 
9 10 11 12 13 14 15 16 17 
18 19 20 21 22 23 24 25 
METADATA
INFORMATION 0

Scalar 1 26 float
0.776583 0.362545 0.692387 0.51105 0.597138 0.534904 0.565208 0.338156 0.205588 
0.33557 0.177968 0 0.050004 0.000233944 0.0500712 0.000451739 0.0317216 0.00517591 
0.00613395 0.164739 0.00727365 0.188481 0.00894268 0.0594066 0.041669 0.0668151 
METADATA
INFORMATION 0

VertexId 1 26 int
19779 17730 16448 14781 13886 13120 11839 6595 6976 
6586 6845 4799 43 19065 82 19611 13869 14008 
20152 19892 19534 19409 16329 16208 16185 16184 
METADATA
INFORMATION 0

RegionSize 1 26 int
366 572 48 150 13 16 20 34 127 
45 118 878 193 8787 6264 3728 7620 65 
42 118 59 127 36 1006 2 2466 
METADATA
INFORMATION 0

RegionSpan 1 26 int
16 84 13 23 6 13 10 4 98 
3 102 42 39 153 126 48 108 11 
4 102 3 98 7 24 1 29 
METADATA
INFORMATION 0

