# vtk DataFile Version 4.2
vtk output
ASCII
DATASET UNSTRUCTURED_GRID
POINTS 32 float
58 154 0 58 138 0 60 126 0 
65 119 0 62 109 0 62 98 0 
62 92 0 58 51 0 61 53 0 
67 51 0 64 54 0 63 37 0 
83 0 0 5 147 0 12 0 0 
98 152 0 86 114 0 73 112 0 
69 156 0 73 153 0 47 151 0 
43 149 0 70 129 0 77 126 0 
51 127 0 44 125 0 54 126 0 
53 127 0 68 111 0 69 112 0 
67 110 0 68 110 0 
METADATA
INFORMATION 2
NAME L2_NORM_RANGE LOCATION vtkDataArray
DATA 2 12 180.854 
NAME L2_NORM_FINITE_RANGE LOCATION vtkDataArray
DATA 2 12 180.854 

CELL_TYPES 0

POINT_DATA 32
SCALARS CriticalType int
LOOKUP_TABLE default
3 2 3 2 3 2 3 3 2 
3 2 0 1 0 1 0 1 0 
0 1 0 1 0 1 0 1 0 
1 0 1 0 1 
METADATA
INFORMATION 0

FIELD FieldData 5
NodeId 1 32 int
0 1 2 3 4 5 6 7 8 
9 10 11 12 13 14 15 16 17 
18 19 20 21 22 23 24 25 26 
27 28 29 30 31 
METADATA
INFORMATION 0

Scalar 1 32 float
0.761723 0.377346 0.650139 0.421334 0.597309 0.548402 0.574054 0.34053 0.181433 
0.338168 0.203928 0 0.0500184 0.000195849 0.050037 0.000462827 0.0272009 0.00170545 
0.00327436 0.15882 0.00543425 0.190772 0.00748423 0.0325705 0.0148104 0.0559384 0.0362638 
0.067271 0.0412666 0.0832298 0.0691319 0.0947208 
METADATA
INFORMATION 0

VertexId 1 32 int
19770 17722 16188 15297 14014 12606 11838 6586 6845 
6595 6976 4799 83 18821 12 19554 14678 14409 
20037 19657 19375 19115 16582 16205 16307 16044 16182 
16309 14276 14405 14147 14148 
METADATA
INFORMATION 0

RegionSize 1 32 int
336 661 70 65 14 80 11 45 206 
32 108 902 189 7847 5820 2865 1221 87 
39 206 59 108 29 7756 34 1866 1 
955 1 372 0 1003 
METADATA
INFORMATION 0

RegionSpan 1 32 int
16 84 8 20 11 21 6 3 100 
4 97 42 71 147 129 39 15 13 
5 100 4 97 7 126 7 9 1 
21 1 2 1 43 
METADATA
INFORMATION 0

