# vtk DataFile Version 4.2
vtk output
ASCII
DATASET UNSTRUCTURED_GRID
POINTS 28 float
66 154 0 67 139 0 64 128 0 
64 126 0 63 125 0 63 107 0 
62 114 0 67 51 0 64 54 0 
58 51 0 61 53 0 63 37 0 
46 0 0 120 148 0 93 0 0 
26 151 0 46 109 0 75 127 0 
82 126 0 56 130 0 47 127 0 
56 110 0 71 126 0 72 126 0 
77 151 0 81 151 0 55 156 0 
52 153 0 
METADATA
INFORMATION 2
NAME L2_NORM_RANGE LOCATION vtkDataArray
DATA 2 46 190.536 
NAME L2_NORM_FINITE_RANGE LOCATION vtkDataArray
DATA 2 46 190.536 

CELL_TYPES 0

POINT_DATA 28
SCALARS CriticalType int
LOOKUP_TABLE default
3 2 3 2 3 3 2 3 2 
3 2 0 1 0 1 0 1 0 
1 0 1 0 0 1 0 1 0 
1 
METADATA
INFORMATION 0

FIELD FieldData 5
NodeId 1 28 int
0 1 2 3 4 5 6 7 8 
9 10 11 12 13 14 15 16 17 
18 19 20 21 22 23 24 25 26 
27 
METADATA
INFORMATION 0

Scalar 1 28 float
0.767455 0.417345 0.677058 0.645534 0.674142 0.607702 0.536817 0.340191 0.203597 
0.337922 0.181218 0 0.0500243 6.49384e-05 0.0500583 0.000478327 0.0333401 0.00380444 
0.051921 0.00499668 0.0350408 0.00894646 0.025149 0.0705044 0.0297897 0.189934 0.0306157 
0.151999 
METADATA
INFORMATION 0

VertexId 1 28 int
19778 17859 16448 16192 16063 13759 14654 6595 6976 
6586 6845 4799 46 19064 93 19354 13998 16331 
16210 16696 16303 14136 16199 16200 19405 19409 20023 
19636 
METADATA
INFORMATION 0

RegionSize 1 28 int
283 722 5 36 3 37 110 34 97 
45 265 912 146 8744 3063 3871 500 39 
4646 50 6954 56 0 1981 60 97 34 
265 
METADATA
INFORMATION 0

RegionSpan 1 28 int
15 85 2 12 1 7 25 4 98 
3 100 40 47 150 126 46 18 7 
10 9 127 10 1 33 4 98 4 
100 
METADATA
INFORMATION 0

