# vtk DataFile Version 4.2
vtk output
ASCII
DATASET UNSTRUCTURED_GRID
POINTS 32 float
66 153 0 66 138 0 64 126 0 
61 117 0 63 107 0 62 108 0 
62 109 0 63 93 0 64 98 0 
67 51 0 64 54 0 58 51 0 
61 53 0 63 37 0 30 0 0 
120 148 0 105 0 0 25 151 0 
42 110 0 54 110 0 55 129 0 
47 127 0 73 127 0 81 126 0 
58 109 0 57 110 0 55 155 0 
51 153 0 78 151 0 81 151 0 
70 126 0 71 127 0 
METADATA
INFORMATION 2
NAME L2_NORM_RANGE LOCATION vtkDataArray
DATA 2 30 190.536 
NAME L2_NORM_FINITE_RANGE LOCATION vtkDataArray
DATA 2 30 190.536 

CELL_TYPES 0

POINT_DATA 32
SCALARS CriticalType int
LOOKUP_TABLE default
3 2 3 2 3 2 3 3 2 
3 2 3 2 0 1 0 1 0 
1 0 0 1 0 1 0 1 0 
1 0 1 0 1 
METADATA
INFORMATION 0

FIELD FieldData 5
NodeId 1 32 int
0 1 2 3 4 5 6 7 8 
9 10 11 12 13 14 15 16 17 
18 19 20 21 22 23 24 25 26 
27 28 29 30 31 
METADATA
INFORMATION 0

Scalar 1 32 float
0.759507 0.411536 0.685873 0.479753 0.605667 0.568995 0.595858 0.572953 0.545444 
0.34046 0.203959 0.338111 0.181936 0 0.0500363 2.34094e-05 0.0500527 0.00079593 
0.0312686 0.00204958 0.00798424 0.0351593 0.0116124 0.0590167 0.0161552 0.0559152 0.0279786 
0.154381 0.0292725 0.190945 0.032417 0.0654696 
METADATA
INFORMATION 0

VertexId 1 32 int
19650 17730 16192 15037 13759 13886 14014 11967 12608 
6595 6976 6586 6845 4799 30 19064 105 19353 
14122 14134 16567 16303 16329 16209 14010 14137 19895 
19635 19406 19409 16198 16327 
METADATA
INFORMATION 0

RegionSize 1 32 int
298 708 58 79 3 9 1 12 35 
34 79 45 256 1066 175 8702 5574 3365 
981 72 40 6749 37 947 1 756 34 
256 59 79 0 2503 
METADATA
INFORMATION 0

RegionSpan 1 32 int
15 84 9 21 1 10 1 5 19 
4 98 3 100 49 75 148 120 44 
17 12 8 128 8 10 1 28 4 
100 3 98 1 32 
METADATA
INFORMATION 0

