# vtk DataFile Version 4.2
vtk output
ASCII
DATASET UNSTRUCTURED_GRID
POINTS 30 float
67 154 0 66 138 0 63 126 0 
61 113 0 62 108 0 63 107 0 
63 105 0 63 93 0 64 96 0 
64 98 0 67 51 0 64 54 0 
58 51 0 61 53 0 63 37 0 
41 0 0 120 148 0 116 0 0 
27 153 0 45 109 0 55 108 0 
56 157 0 52 155 0 78 152 0 
81 151 0 70 126 0 72 126 0 
74 127 0 81 125 0 63 103 0 

METADATA
INFORMATION 2
NAME L2_NORM_RANGE LOCATION vtkDataArray
DATA 2 41 190.536 
NAME L2_NORM_FINITE_RANGE LOCATION vtkDataArray
DATA 2 41 190.536 

CELL_TYPES 0

POINT_DATA 30
SCALARS CriticalType int
LOOKUP_TABLE default
3 2 3 2 3 2 3 3 2 
3 3 2 3 2 0 1 0 1 
0 1 0 0 1 0 1 0 1 
0 1 2 
METADATA
INFORMATION 0

FIELD FieldData 5
NodeId 1 30 int
0 1 2 3 4 5 6 7 8 
9 10 11 12 13 14 15 16 17 
18 19 20 21 22 23 24 25 26 
27 28 29 
METADATA
INFORMATION 0

Scalar 1 30 float
0.781754 0.35806 0.660596 0.508562 0.589306 0.553735 0.581736 0.580705 0.542418 
0.568934 0.338201 0.205088 0.335768 0.178317 0 0.0500203 0.000179947 0.050048 
0.000393146 0.0312585 0.00267153 0.00614482 0.163205 0.0123516 0.189507 0.0123836 0.0564136 
0.012732 0.0537672 0.528636 
METADATA
INFORMATION 0

VertexId 1 30 int
19779 17730 16191 14525 13886 13759 13503 11967 12352 
12608 6595 6976 6586 6845 4799 41 19064 116 
19611 13997 13879 20152 19892 19534 19409 16198 16200 
16330 16081 13247 
METADATA
INFORMATION 0

RegionSize 1 30 int
370 564 50 171 2 5 2 11 4 
6 34 129 45 133 961 230 8391 4800 
3635 7765 63 43 133 57 129 1 4092 
35 1053 8 
METADATA
INFORMATION 0

RegionSpan 1 30 int
16 84 13 25 1 4 2 3 7 
2 4 98 3 102 43 75 148 129 
47 109 10 4 102 3 98 2 35 
7 9 10 
METADATA
INFORMATION 0

