# vtk DataFile Version 4.2
vtk output
ASCII
DATASET UNSTRUCTURED_GRID
POINTS 26 float
66 153 0 66 138 0 63 126 0 
62 112 0 63 105 0 62 106 0 
62 107 0 67 51 0 64 54 0 
58 51 0 61 53 0 63 37 0 
31 0 0 119 147 0 83 125 0 
26 151 0 46 106 0 56 107 0 
75 126 0 78 151 0 81 151 0 
55 155 0 52 153 0 71 125 0 
72 126 0 79 0 0 
METADATA
INFORMATION 2
NAME L2_NORM_RANGE LOCATION vtkDataArray
DATA 2 31 189.13 
NAME L2_NORM_FINITE_RANGE LOCATION vtkDataArray
DATA 2 31 189.13 

CELL_TYPES 0

POINT_DATA 26
SCALARS CriticalType int
LOOKUP_TABLE default
3 2 3 2 3 2 3 3 2 
3 2 0 1 0 1 0 1 0 
0 0 1 0 1 0 1 1 
METADATA
INFORMATION 0

FIELD FieldData 5
NodeId 1 26 int
0 1 2 3 4 5 6 7 8 
9 10 11 12 13 14 15 16 17 
18 19 20 21 22 23 24 25 
METADATA
INFORMATION 0

Scalar 1 26 float
0.76215 0.384844 0.652975 0.517418 0.601292 0.559185 0.586741 0.340527 0.20398 
0.338028 0.181639 0 0.0500048 8.57963e-05 0.0497847 0.000340918 0.0334478 0.00476767 
0.0173235 0.0338997 0.189227 0.0344786 0.152943 0.0350702 0.06012 0.0500711 
METADATA
INFORMATION 0

VertexId 1 26 int
19650 17730 16191 14398 13503 13630 13758 6595 6976 
6586 6845 4799 31 18935 16083 19354 13614 13752 
16203 19406 19409 19895 19636 16071 16200 79 
METADATA
INFORMATION 0

RegionSize 1 26 int
329 639 53 142 5 34 2 34 109 
45 259 954 206 8099 758 4035 7221 52 
38 60 109 33 259 1 3140 6450 
METADATA
INFORMATION 0

RegionSpan 1 26 int
15 84 14 26 1 6 1 4 98 
3 100 48 48 42 125 49 107 10 
8 3 98 3 100 1 33 126 
METADATA
INFORMATION 0

