# vtk DataFile Version 4.2
vtk output
ASCII
DATASET UNSTRUCTURED_GRID
POINTS 34 float
67 154 0 66 139 0 64 128 0 
61 114 0 63 107 0 61 109 0 
64 101 0 63 105 0 61 110 0 
67 51 0 64 54 0 58 51 0 
61 53 0 63 37 0 47 0 0 
123 150 0 86 0 0 27 153 0 
41 110 0 53 109 0 54 129 0 
45 127 0 72 129 0 78 126 0 
78 152 0 82 153 0 56 156 0 
52 154 0 58 108 0 57 109 0 
58 127 0 56 127 0 66 116 0 
70 116 0 
METADATA
INFORMATION 2
NAME L2_NORM_RANGE LOCATION vtkDataArray
DATA 2 47 193.982 
NAME L2_NORM_FINITE_RANGE LOCATION vtkDataArray
DATA 2 47 193.982 

CELL_TYPES 0

POINT_DATA 34
SCALARS CriticalType int
LOOKUP_TABLE default
3 2 3 2 3 2 3 2 3 
3 2 3 2 0 1 0 1 0 
1 0 0 1 0 1 0 1 0 
1 0 1 0 1 0 1 
METADATA
INFORMATION 0

FIELD FieldData 5
NodeId 1 34 int
0 1 2 3 4 5 6 7 8 
9 10 11 12 13 14 15 16 17 
18 19 20 21 22 23 24 25 26 
27 28 29 30 31 32 33 
METADATA
INFORMATION 0

Scalar 1 34 float
0.778364 0.391873 0.701289 0.452207 0.584691 0.542418 0.578057 0.540759 0.569364 
0.33823 0.205092 0.335647 0.178282 0 0.0500155 0.000103947 0.0500503 0.000640013 
0.0294738 0.00104705 0.00501723 0.0305414 0.00722682 0.0678604 0.0177519 0.194523 0.0233375 
0.157788 0.0251963 0.0633505 0.0261998 0.0544942 0.068417 0.0960134 
METADATA
INFORMATION 0

VertexId 1 34 int
19779 17858 16448 14653 13759 14013 12992 13503 14141 
6595 6976 6586 6845 4799 47 19323 86 19611 
14121 14005 16566 16301 16584 16206 19534 19666 20024 
19764 13882 14009 16314 16312 14914 14918 
METADATA
INFORMATION 0

RegionSize 1 34 int
320 664 65 85 4 0 23 39 1 
34 72 45 182 826 161 8413 5179 3181 
279 80 48 7940 35 1387 62 72 40 
182 0 488 4 1998 8 957 
METADATA
INFORMATION 0

RegionSpan 1 34 int
15 85 14 25 2 4 4 9 1 
4 100 3 101 40 39 154 130 45 
17 12 9 127 6 12 4 100 4 
101 1 27 2 18 4 42 
METADATA
INFORMATION 0

