# vtk DataFile Version 4.2
vtk output
ASCII
DATASET UNSTRUCTURED_GRID
POINTS 32 float
58 154 0 60 138 0 62 128 0 
61 119 0 62 105 0 62 99 0 
62 93 0 63 115 0 58 51 0 
61 53 0 67 51 0 64 54 0 
63 37 0 89 0 0 6 148 0 
50 0 0 99 152 0 82 127 0 
73 127 0 70 108 0 81 107 0 
55 129 0 48 126 0 69 157 0 
74 154 0 47 152 0 44 152 0 
68 127 0 70 127 0 59 115 0 
54 114 0 64 114 0 
METADATA
INFORMATION 2
NAME L2_NORM_RANGE LOCATION vtkDataArray
DATA 2 50 181.397 
NAME L2_NORM_FINITE_RANGE LOCATION vtkDataArray
DATA 2 50 181.397 

CELL_TYPES 0

POINT_DATA 32
SCALARS CriticalType int
LOOKUP_TABLE default
3 2 3 2 3 2 3 3 3 
2 3 2 0 1 0 1 0 1 
0 0 1 0 1 0 1 0 1 
0 1 0 1 2 
METADATA
INFORMATION 0

FIELD FieldData 5
NodeId 1 32 int
0 1 2 3 4 5 6 7 8 
9 10 11 12 13 14 15 16 17 
18 19 20 21 22 23 24 25 26 
27 28 29 30 31 
METADATA
INFORMATION 0

Scalar 1 32 float
0.770347 0.382209 0.718078 0.508287 0.597572 0.550385 0.580479 0.541658 0.340139 
0.181093 0.337757 0.203093 0 0.050005 0.000240786 0.0500472 0.000615097 0.0287104 
0.00118801 0.00709651 0.0332676 0.00944377 0.0740102 0.0242723 0.163364 0.0271584 0.188047 
0.0316571 0.0676879 0.0464728 0.0780586 0.506406 
METADATA
INFORMATION 0

VertexId 1 32 int
19770 17724 16446 15293 13502 12734 11966 14783 6586 
6845 6595 6976 4799 89 18950 50 19555 16338 
16329 13894 13777 16567 16176 20165 19786 19503 19500 
16324 16326 14779 14646 14656 
METADATA
INFORMATION 0

RegionSize 1 32 int
345 645 42 1 12 23 12 5 45 
160 32 110 925 154 8316 7443 3028 1075 
53 66 7513 29 254 41 160 61 110 
3 484 13 1677 128 
METADATA
INFORMATION 0

RegionSpan 1 32 int
16 84 9 5 6 15 6 4 3 
101 4 100 45 39 154 128 30 20 
9 11 107 7 13 5 101 3 100 
2 22 5 44 24 
METADATA
INFORMATION 0

