# vtk DataFile Version 4.2
vtk output
ASCII
DATASET UNSTRUCTURED_GRID
POINTS 30 float
67 154 0 66 138 0 63 126 0 
63 117 0 63 105 0 64 102 0 
63 93 0 63 115 0 67 51 0 
64 54 0 58 51 0 61 53 0 
63 37 0 46 0 0 122 148 0 
119 0 0 27 153 0 45 107 0 
55 107 0 73 127 0 80 126 0 
78 152 0 82 150 0 57 126 0 
56 126 0 56 156 0 52 154 0 
67 114 0 70 113 0 62 112 0 

METADATA
INFORMATION 2
NAME L2_NORM_RANGE LOCATION vtkDataArray
DATA 2 46 191.802 
NAME L2_NORM_FINITE_RANGE LOCATION vtkDataArray
DATA 2 46 191.802 

CELL_TYPES 0

POINT_DATA 30
SCALARS CriticalType int
LOOKUP_TABLE default
3 2 3 2 3 2 3 3 3 
2 3 2 0 1 0 1 0 1 
0 0 1 0 1 0 1 0 1 
0 1 2 
METADATA
INFORMATION 0

FIELD FieldData 5
NodeId 1 30 int
0 1 2 3 4 5 6 7 8 
9 10 11 12 13 14 15 16 17 
18 19 20 21 22 23 24 25 26 
27 28 29 
METADATA
INFORMATION 0

Scalar 1 30 float
0.774006 0.360178 0.687272 0.501206 0.596515 0.542046 0.573902 0.529417 0.338226 
0.205074 0.335637 0.178298 0 0.0500154 7.96241e-05 0.0500421 0.00057178 0.0319833 
0.00648162 0.00852494 0.059996 0.0175224 0.192371 0.0192711 0.0667803 0.0233196 0.160664 
0.05932 0.0853844 0.496357 
METADATA
INFORMATION 0

VertexId 1 30 int
19779 17730 16191 15039 13503 13120 11967 14783 6595 
6976 6586 6845 4799 46 19066 119 19611 13741 
13751 16329 16208 19534 19282 16185 16184 20024 19764 
14659 14534 14398 
METADATA
INFORMATION 0

RegionSize 1 30 int
369 563 50 1 9 23 18 3 34 
109 45 170 851 258 8285 6775 3842 7566 
55 38 914 62 109 1 1093 39 170 
9 1302 154 
METADATA
INFORMATION 0

RegionSpan 1 30 int
16 84 9 5 3 10 9 2 4 
97 3 101 40 73 148 131 49 107 
10 7 24 4 97 1 19 4 101 
3 44 26 
METADATA
INFORMATION 0

