# vtk DataFile Version 4.2
vtk output
ASCII
DATASET UNSTRUCTURED_GRID
POINTS 24 float
67 153 0 65 138 0 63 126 0 
61 113 0 63 105 0 67 51 0 
64 54 0 58 51 0 61 53 0 
63 37 0 44 0 0 122 147 0 
113 0 0 27 152 0 47 107 0 
56 156 0 52 154 0 56 108 0 
78 151 0 82 150 0 71 129 0 
77 126 0 57 126 0 55 126 0 

METADATA
INFORMATION 2
NAME L2_NORM_RANGE LOCATION vtkDataArray
DATA 2 44 191.031 
NAME L2_NORM_FINITE_RANGE LOCATION vtkDataArray
DATA 2 44 191.031 

CELL_TYPES 0

POINT_DATA 24
SCALARS CriticalType int
LOOKUP_TABLE default
3 2 3 2 3 3 2 3 2 
0 1 0 1 0 1 0 1 0 
0 1 0 1 0 1 
METADATA
INFORMATION 0

FIELD FieldData 5
NodeId 1 24 int
0 1 2 3 4 5 6 7 8 
9 10 11 12 13 14 15 16 17 
18 19 20 21 22 23 
METADATA
INFORMATION 0

Scalar 1 24 float
0.764293 0.380295 0.717179 0.530197 0.608206 0.340523 0.203944 0.338216 0.181836 
0 0.0500049 0.00010013 0.0500531 0.000280332 0.0343379 0.00625023 0.158885 0.00807152 
0.0110102 0.194105 0.0149882 0.0735842 0.034912 0.0842043 
METADATA
INFORMATION 0

VertexId 1 24 int
19651 17729 16191 14525 13503 6595 6976 6586 6845 
4799 44 18938 113 19483 13743 20024 19764 13880 
19406 19282 16583 16205 16185 16183 
METADATA
INFORMATION 0

RegionSize 1 24 int
342 622 40 168 33 34 72 45 194 
865 295 8378 8092 4269 7090 38 194 46 
62 72 31 549 3 1389 
METADATA
INFORMATION 0

RegionSpan 1 24 int
15 84 13 25 8 4 97 3 101 
41 69 147 131 49 107 4 101 9 
4 97 6 22 2 28 
METADATA
INFORMATION 0

