# vtk DataFile Version 4.2
vtk output
ASCII
DATASET UNSTRUCTURED_GRID
POINTS 30 float
57 154 0 60 137 0 62 125 0 
62 116 0 62 104 0 62 106 0 
63 107 0 62 94 0 61 101 0 
63 115 0 58 51 0 61 53 0 
67 51 0 64 54 0 63 37 0 
77 0 0 3 148 0 47 0 0 
98 152 0 79 106 0 69 107 0 
47 151 0 44 150 0 69 156 0 
73 154 0 53 127 0 47 125 0 
68 125 0 70 125 0 63 113 0 

METADATA
INFORMATION 2
NAME L2_NORM_RANGE LOCATION vtkDataArray
DATA 2 47 180.854 
NAME L2_NORM_FINITE_RANGE LOCATION vtkDataArray
DATA 2 47 180.854 

CELL_TYPES 0

POINT_DATA 30
SCALARS CriticalType int
LOOKUP_TABLE default
3 2 3 2 3 2 3 3 2 
3 3 2 3 2 0 1 0 1 
0 1 0 0 1 0 1 0 1 
0 1 2 
METADATA
INFORMATION 0

FIELD FieldData 5
NodeId 1 30 int
0 1 2 3 4 5 6 7 8 
9 10 11 12 13 14 15 16 17 
18 19 20 21 22 23 24 25 26 
27 28 29 
METADATA
INFORMATION 0

Scalar 1 30 float
0.764889 0.352797 0.710834 0.538548 0.590676 0.550611 0.588676 0.574417 0.536684 
0.562618 0.340262 0.181256 0.338155 0.203754 0 0.0500111 0.000118229 0.050068 
0.000479317 0.0335346 0.00422377 0.00761103 0.187896 0.0104604 0.163548 0.0146009 0.0649172 
0.0460049 0.0920328 0.528301 
METADATA
INFORMATION 0

VertexId 1 30 int
19769 17596 16062 14910 13374 13630 13759 12094 12989 
14783 6586 6845 6595 6976 4799 77 18947 47 
19554 13647 13765 19375 19244 20037 19785 16309 16047 
16068 16070 14527 
METADATA
INFORMATION 0

RegionSize 1 30 int
384 572 32 2 3 7 2 19 5 
2 45 166 32 129 779 173 8153 7211 
4346 7585 50 60 129 41 166 34 1537 
4 1146 177 
METADATA
INFORMATION 0

RegionSpan 1 30 int
17 83 9 3 2 5 1 7 12 
1 3 101 4 98 39 30 154 125 
49 106 10 3 98 4 101 6 23 
2 29 24 
METADATA
INFORMATION 0

