# vtk DataFile Version 4.2
vtk output
ASCII
DATASET UNSTRUCTURED_GRID
POINTS 32 float
57 154 0 60 138 0 61 126 0 
64 115 0 63 109 0 62 108 0 
62 106 0 64 111 0 64 110 0 
62 91 0 62 100 0 58 51 0 
61 53 0 67 51 0 64 54 0 
63 37 0 91 0 0 3 148 0 
19 0 0 98 152 0 82 127 0 
73 127 0 70 110 0 80 110 0 
69 156 0 73 154 0 55 127 0 
48 126 0 47 151 0 43 149 0 
68 127 0 69 126 0 
METADATA
INFORMATION 2
NAME L2_NORM_RANGE LOCATION vtkDataArray
DATA 2 19 180.854 
NAME L2_NORM_FINITE_RANGE LOCATION vtkDataArray
DATA 2 19 180.854 

CELL_TYPES 0

POINT_DATA 32
SCALARS CriticalType int
LOOKUP_TABLE default
3 2 3 2 3 2 3 3 2 
3 2 3 2 3 2 0 1 0 
1 0 1 0 0 1 0 1 0 
1 0 1 0 1 
METADATA
INFORMATION 0

FIELD FieldData 5
NodeId 1 32 int
0 1 2 3 4 5 6 7 8 
9 10 11 12 13 14 15 16 17 
18 19 20 21 22 23 24 25 26 
27 28 29 30 31 
METADATA
INFORMATION 0

Scalar 1 32 float
0.765476 0.380128 0.688818 0.516321 0.602596 0.5682 0.597475 0.576442 0.551163 
0.57281 0.535588 0.340608 0.181442 0.338207 0.203615 0 0.050032 7.40608e-05 
0.0500514 0.000352151 0.0277262 0.00324831 0.00399452 0.0319864 0.00768016 0.160569 0.0103271 
0.0717044 0.01401 0.192159 0.0426307 0.0703829 
METADATA
INFORMATION 0

VertexId 1 32 int
19769 17724 16189 14784 14015 13886 13630 14272 14144 
11710 12862 6586 6845 6595 6976 4799 91 18947 
19 19554 16338 16329 14150 14160 20037 19785 16311 
16176 19375 19115 16324 16197 
METADATA
INFORMATION 0

RegionSize 1 32 int
347 624 43 138 2 2 4 1 3 
18 13 45 185 32 88 976 191 7847 
7900 2933 994 54 52 7860 41 185 31 
2084 60 88 2 93 
METADATA
INFORMATION 0

RegionSpan 1 32 int
16 84 11 23 1 2 2 1 10 
9 15 3 101 4 97 46 72 148 
135 29 17 9 10 110 4 101 7 
37 4 97 1 21 
METADATA
INFORMATION 0

