# vtk DataFile Version 4.2
vtk output
ASCII
DATASET UNSTRUCTURED_GRID
POINTS 26 float
58 152 0 60 136 0 61 125 0 
65 117 0 62 109 0 64 112 0 
64 113 0 58 51 0 61 53 0 
67 51 0 64 54 0 63 37 0 
83 0 0 4 146 0 48 0 0 
99 150 0 52 126 0 45 125 0 
70 155 0 73 151 0 47 149 0 
43 149 0 55 125 0 54 126 0 
68 113 0 69 113 0 
METADATA
INFORMATION 2
NAME L2_NORM_RANGE LOCATION vtkDataArray
DATA 2 48 179.725 
NAME L2_NORM_FINITE_RANGE LOCATION vtkDataArray
DATA 2 48 179.725 

CELL_TYPES 0

POINT_DATA 26
SCALARS CriticalType int
LOOKUP_TABLE default
3 2 3 2 3 2 3 3 2 
3 2 0 1 0 1 0 0 1 
0 1 0 1 0 1 0 1 
METADATA
INFORMATION 0

FIELD FieldData 5
NodeId 1 26 int
0 1 2 3 4 5 6 7 8 
9 10 11 12 13 14 15 16 17 
18 19 20 21 22 23 24 25 
METADATA
INFORMATION 0

Scalar 1 26 float
0.739677 0.372442 0.644854 0.484296 0.612361 0.561307 0.591052 0.340029 0.180772 
0.33852 0.204152 0 0.0500091 0.000200811 0.0500644 0.000573334 0.00962984 0.0598909 
0.0268781 0.157504 0.0276224 0.192539 0.0290996 0.0607889 0.0327311 0.0587793 
METADATA
INFORMATION 0

VertexId 1 26 int
19514 17468 16061 15041 14014 14400 14528 6586 6845 
6595 6976 4799 83 18692 48 19299 16180 16045 
19910 19401 19119 19115 16055 16182 14532 14533 
METADATA
INFORMATION 0

RegionSize 1 26 int
349 661 44 135 23 37 0 45 202 
32 88 890 149 8280 6351 11771 30 163 
34 202 61 88 0 3117 0 208 
METADATA
INFORMATION 0

RegionSpan 1 26 int
16 82 8 19 3 5 1 3 98 
4 97 42 35 152 114 150 7 9 
5 98 4 97 1 31 1 26 
METADATA
INFORMATION 0

