# vtk DataFile Version 4.2
vtk output
ASCII
DATASET UNSTRUCTURED_GRID
POINTS 28 float
57 154 0 60 138 0 61 128 0 
62 120 0 62 106 0 63 107 0 
63 108 0 62 118 0 58 51 0 
61 53 0 67 51 0 64 54 0 
63 37 0 75 0 0 0 147 0 
41 0 0 98 152 0 80 110 0 
71 109 0 47 150 0 43 149 0 
69 156 0 73 154 0 56 127 0 
50 126 0 68 126 0 70 126 0 
64 114 0 
METADATA
INFORMATION 2
NAME L2_NORM_RANGE LOCATION vtkDataArray
DATA 2 41 180.854 
NAME L2_NORM_FINITE_RANGE LOCATION vtkDataArray
DATA 2 41 180.854 

CELL_TYPES 0

POINT_DATA 28
SCALARS CriticalType int
LOOKUP_TABLE default
3 2 3 2 3 2 3 3 3 
2 3 2 0 1 0 1 0 1 
0 0 1 0 1 0 1 0 1 
2 
METADATA
INFORMATION 0

FIELD FieldData 5
NodeId 1 28 int
0 1 2 3 4 5 6 7 8 
9 10 11 12 13 14 15 16 17 
18 19 20 21 22 23 24 25 26 
27 
METADATA
INFORMATION 0

Scalar 1 28 float
0.762679 0.368006 0.700926 0.494061 0.606624 0.562904 0.594839 0.528055 0.340501 
0.181534 0.338303 0.203918 0 0.0499945 9.8737e-05 0.0500786 0.000506333 0.0312393 
0.00547151 0.0131698 0.193016 0.0140893 0.161158 0.0209311 0.0773349 0.0367669 0.0900816 
0.480405 
METADATA
INFORMATION 0

VertexId 1 28 int
19769 17724 16445 15422 13630 13759 13887 15166 6586 
6845 6595 6976 4799 75 18816 41 19554 14160 
14023 19247 19115 20037 19785 16312 16178 16196 16198 
14656 
METADATA
INFORMATION 0

RegionSize 1 28 int
362 607 40 9 5 54 2 3 45 
173 32 82 781 233 8136 8118 3858 8067 
45 60 82 41 173 24 568 3 1180 
129 
METADATA
INFORMATION 0

RegionSpan 1 28 int
16 84 8 6 1 7 1 2 3 
101 4 97 38 34 152 126 45 110 
9 4 97 4 101 6 20 2 28 
24 
METADATA
INFORMATION 0

