# vtk DataFile Version 4.2
vtk output
ASCII
DATASET UNSTRUCTURED_GRID
POINTS 24 float
66 154 0 66 138 0 63 121 0 
62 112 0 63 105 0 67 51 0 
64 54 0 58 51 0 61 53 0 
63 37 0 48 0 0 116 148 0 
83 124 0 25 151 0 48 107 0 
75 126 0 56 108 0 55 156 0 
51 153 0 77 152 0 80 150 0 
70 124 0 72 125 0 90 0 0 

METADATA
INFORMATION 2
NAME L2_NORM_RANGE LOCATION vtkDataArray
DATA 2 48 188.043 
NAME L2_NORM_FINITE_RANGE LOCATION vtkDataArray
DATA 2 48 188.043 

CELL_TYPES 0

POINT_DATA 24
SCALARS CriticalType int
LOOKUP_TABLE default
3 2 3 2 3 3 2 3 2 
0 1 0 1 0 1 0 0 0 
1 0 1 0 1 1 
METADATA
INFORMATION 0

FIELD FieldData 5
NodeId 1 24 int
0 1 2 3 4 5 6 7 8 
9 10 11 12 13 14 15 16 17 
18 19 20 21 22 23 
METADATA
INFORMATION 0

Scalar 1 24 float
0.769128 0.383842 0.648922 0.516582 0.603319 0.33967 0.203974 0.337915 0.180738 
0 0.0500112 0.000172154 0.045057 0.000591159 0.0350279 0.00394654 0.00969204 0.0117334 
0.158406 0.0151984 0.190149 0.0349937 0.0589485 0.0500443 
METADATA
INFORMATION 0

VertexId 1 24 int
19778 17730 15551 14398 13503 6595 6976 6586 6845 
4799 48 19060 15955 19353 13744 16203 13880 20023 
19635 19533 19280 15942 16072 90 
METADATA
INFORMATION 0

RegionSize 1 24 int
331 653 56 138 42 34 96 45 202 
842 185 6131 2967 4353 6909 41 42 38 
202 60 96 2 3353 6169 
METADATA
INFORMATION 0

RegionSpan 1 24 int
16 84 9 26 7 4 97 3 100 
39 42 40 124 49 107 8 8 5 
100 3 97 2 35 126 
METADATA
INFORMATION 0

