# vtk DataFile Version 4.2
vtk output
ASCII
DATASET UNSTRUCTURED_GRID
POINTS 26 float
67 154 0 66 138 0 63 126 0 
63 113 0 63 104 0 67 51 0 
64 54 0 58 51 0 61 53 0 
63 37 0 40 0 0 122 148 0 
86 0 0 28 153 0 46 105 0 
56 106 0 78 152 0 82 154 0 
74 127 0 82 125 0 57 126 0 
56 125 0 56 157 0 52 154 0 
67 114 0 70 112 0 
METADATA
INFORMATION 2
NAME L2_NORM_RANGE LOCATION vtkDataArray
DATA 2 40 191.802 
NAME L2_NORM_FINITE_RANGE LOCATION vtkDataArray
DATA 2 40 191.802 

CELL_TYPES 0

POINT_DATA 26
SCALARS CriticalType int
LOOKUP_TABLE default
3 2 3 2 3 3 2 3 2 
0 1 0 1 0 1 0 0 1 
0 1 0 1 0 1 0 1 
METADATA
INFORMATION 0

FIELD FieldData 5
NodeId 1 26 int
0 1 2 3 4 5 6 7 8 
9 10 11 12 13 14 15 16 17 
18 19 20 21 22 23 24 25 
METADATA
INFORMATION 0

Scalar 1 26 float
0.78006 0.350473 0.642358 0.525482 0.602344 0.338285 0.205095 0.335479 0.178229 
0 0.0500096 0.000151855 0.0500402 0.000469695 0.0326332 0.00782544 0.00828762 0.192911 
0.0175242 0.0530301 0.0227601 0.0518407 0.0260927 0.158462 0.0601727 0.0864137 
METADATA
INFORMATION 0

VertexId 1 26 int
19779 17730 16191 14527 13375 6595 6976 6586 6845 
4799 40 19066 86 19612 13486 13624 19534 19794 
16330 16082 16185 16056 20152 19764 14659 14406 
METADATA
INFORMATION 0

RegionSize 1 26 int
381 552 44 181 41 34 91 45 193 
875 124 8355 3104 4044 7480 54 59 91 
38 4342 1 1317 41 193 7 1230 
METADATA
INFORMATION 0

RegionSpan 1 26 int
16 84 13 25 9 4 101 3 101 
43 46 152 128 51 105 10 4 101 
8 17 1 26 5 101 3 45 
METADATA
INFORMATION 0

