# vtk DataFile Version 4.2
vtk output
ASCII
DATASET UNSTRUCTURED_GRID
POINTS 26 float
66 154 0 66 139 0 63 128 0 
62 112 0 63 104 0 67 51 0 
64 54 0 58 51 0 61 53 0 
63 37 0 38 0 0 120 148 0 
104 0 0 25 151 0 43 105 0 
55 130 0 46 129 0 55 107 0 
73 127 0 79 126 0 55 156 0 
51 153 0 77 151 0 82 152 0 
67 114 0 72 113 0 
METADATA
INFORMATION 2
NAME L2_NORM_RANGE LOCATION vtkDataArray
DATA 2 38 190.536 
NAME L2_NORM_FINITE_RANGE LOCATION vtkDataArray
DATA 2 38 190.536 

CELL_TYPES 0

POINT_DATA 26
SCALARS CriticalType int
LOOKUP_TABLE default
3 2 3 2 3 3 2 3 2 
0 1 0 1 0 1 0 1 0 
0 1 0 1 0 1 0 1 
METADATA
INFORMATION 0

FIELD FieldData 5
NodeId 1 26 int
0 1 2 3 4 5 6 7 8 
9 10 11 12 13 14 15 16 17 
18 19 20 21 22 23 24 25 
METADATA
INFORMATION 0

Scalar 1 26 float
0.769821 0.415996 0.643436 0.499876 0.599477 0.33993 0.203507 0.337806 0.180836 
0 0.0500155 0.000237192 0.050059 0.00071098 0.0330247 0.0038377 0.0335203 0.00464215 
0.0160751 0.0620347 0.0185596 0.15547 0.021467 0.189841 0.0311593 0.0728285 
METADATA
INFORMATION 0

VertexId 1 26 int
19778 17858 16447 14398 13375 6595 6976 6586 6845 
4799 38 19064 104 19353 13483 16695 16558 13751 
16329 16207 20023 19635 19405 19538 14659 14536 
METADATA
INFORMATION 0

RegionSize 1 26 int
295 702 57 99 51 34 98 45 217 
928 230 8775 6798 3726 158 49 7280 69 
35 1064 40 217 59 98 14 1864 
METADATA
INFORMATION 0

RegionSpan 1 26 int
15 85 16 27 8 4 99 3 100 
44 66 148 128 49 24 9 129 12 
6 14 5 100 5 99 5 45 
METADATA
INFORMATION 0

