# vtk DataFile Version 4.2
vtk output
ASCII
DATASET UNSTRUCTURED_GRID
POINTS 32 float
58 154 0 59 138 0 62 126 0 
64 114 0 63 107 0 61 103 0 
62 93 0 58 51 0 61 53 0 
67 51 0 64 54 0 63 37 0 
81 0 0 7 147 0 35 0 0 
100 152 0 83 108 0 71 108 0 
71 127 0 81 127 0 67 107 0 
68 108 0 53 127 0 46 126 0 
70 156 0 74 153 0 68 127 0 
69 127 0 48 150 0 44 153 0 
59 115 0 55 114 0 
METADATA
INFORMATION 2
NAME L2_NORM_RANGE LOCATION vtkDataArray
DATA 2 35 181.945 
NAME L2_NORM_FINITE_RANGE LOCATION vtkDataArray
DATA 2 35 181.945 

CELL_TYPES 0

POINT_DATA 32
SCALARS CriticalType int
LOOKUP_TABLE default
3 2 3 2 3 2 3 3 2 
3 2 0 1 0 1 0 1 0 
0 1 0 1 0 1 0 1 0 
1 0 1 0 1 
METADATA
INFORMATION 0

FIELD FieldData 5
NodeId 1 32 int
0 1 2 3 4 5 6 7 8 
9 10 11 12 13 14 15 16 17 
18 19 20 21 22 23 24 25 26 
27 28 29 30 31 
METADATA
INFORMATION 0

Scalar 1 32 float
0.758333 0.392916 0.690968 0.472383 0.588673 0.53615 0.579037 0.340388 0.181468 
0.338296 0.203943 0 0.0499937 0.000347174 0.0500453 0.000555256 0.0320517 0.00549666 
0.00592238 0.0324014 0.00678182 0.0558874 0.0112407 0.062038 0.0199856 0.162312 0.0220487 
0.056966 0.0289564 0.189686 0.0515078 0.088124 
METADATA
INFORMATION 0

VertexId 1 32 int
19770 17723 16190 14656 13759 13245 11966 6586 6845 
6595 6976 4799 81 18823 35 19556 13907 13895 
16327 16337 13763 13892 16309 16174 20038 19658 16324 
16325 19248 19628 14779 14647 
METADATA
INFORMATION 0

RegionSize 1 32 int
325 667 61 102 8 30 19 45 177 
32 107 816 220 8365 5529 3705 112 73 
49 7797 0 324 34 1792 37 177 2 
952 58 107 7 1235 
METADATA
INFORMATION 0

RegionSpan 1 32 int
16 84 12 24 4 11 10 3 100 
4 101 41 46 149 112 47 19 12 
10 127 1 19 7 15 5 100 1 
23 5 101 4 43 
METADATA
INFORMATION 0

