# vtk DataFile Version 4.2
vtk output
ASCII
DATASET UNSTRUCTURED_GRID
POINTS 26 float
68 154 0 65 137 0 64 125 0 
61 115 0 63 106 0 62 108 0 
62 110 0 67 51 0 64 54 0 
58 51 0 61 53 0 63 37 0 
38 0 0 122 149 0 96 0 0 
27 153 0 50 111 0 56 111 0 
78 151 0 82 150 0 72 127 0 
80 125 0 57 157 0 52 155 0 
56 125 0 55 124 0 
METADATA
INFORMATION 2
NAME L2_NORM_RANGE LOCATION vtkDataArray
DATA 2 38 192.575 
NAME L2_NORM_FINITE_RANGE LOCATION vtkDataArray
DATA 2 38 192.575 

CELL_TYPES 0

POINT_DATA 26
SCALARS CriticalType int
LOOKUP_TABLE default
3 2 3 2 3 2 3 3 2 
3 2 0 1 0 1 0 1 0 
0 1 0 1 0 1 0 1 
METADATA
INFORMATION 0

FIELD FieldData 5
NodeId 1 26 int
0 1 2 3 4 5 6 7 8 
9 10 11 12 13 14 15 16 17 
18 19 20 21 22 23 24 25 
METADATA
INFORMATION 0

Scalar 1 26 float
0.769954 0.328954 0.669488 0.539564 0.600253 0.572135 0.598072 0.339982 0.203555 
0.337787 0.180893 0 0.050032 0.000163371 0.0500622 0.000699701 0.0327375 0.00603486 
0.0180437 0.189145 0.0232811 0.0606918 0.0330177 0.165025 0.0357668 0.0849255 
METADATA
INFORMATION 0

VertexId 1 26 int
19780 17601 16064 14781 13631 13886 14142 6595 6976 
6586 6845 4799 38 19194 96 19611 14258 14264 
19406 19282 16328 16080 20153 19892 16056 15927 
METADATA
INFORMATION 0

RegionSize 1 26 int
421 510 31 218 4 29 2 34 113 
45 157 966 177 8478 6692 4050 7347 26 
61 113 40 1845 42 157 4 1389 
METADATA
INFORMATION 0

RegionSpan 1 26 int
17 83 10 22 2 7 2 4 97 
3 102 44 58 151 126 47 111 6 
4 97 8 25 5 102 1 31 
METADATA
INFORMATION 0

