# vtk DataFile Version 4.2
vtk output
ASCII
DATASET UNSTRUCTURED_GRID
POINTS 32 float
59 153 0 60 138 0 62 128 0 
61 117 0 62 101 0 62 104 0 
63 105 0 62 114 0 63 113 0 
58 51 0 61 53 0 67 51 0 
64 54 0 63 37 0 78 0 0 
7 148 0 52 0 0 101 151 0 
82 127 0 73 129 0 69 106 0 
80 102 0 48 150 0 44 148 0 
56 127 0 50 126 0 58 113 0 
52 112 0 70 156 0 74 153 0 
69 127 0 70 127 0 
METADATA
INFORMATION 2
NAME L2_NORM_RANGE LOCATION vtkDataArray
DATA 2 52 181.665 
NAME L2_NORM_FINITE_RANGE LOCATION vtkDataArray
DATA 2 52 181.665 

CELL_TYPES 0

POINT_DATA 32
SCALARS CriticalType int
LOOKUP_TABLE default
3 2 3 2 3 2 3 3 2 
3 2 3 2 0 1 0 1 0 
1 0 0 1 0 1 0 1 0 
1 0 1 0 1 
METADATA
INFORMATION 0

FIELD FieldData 5
NodeId 1 32 int
0 1 2 3 4 5 6 7 8 
9 10 11 12 13 14 15 16 17 
18 19 20 21 22 23 24 25 26 
27 28 29 30 31 
METADATA
INFORMATION 0

Scalar 1 32 float
0.751567 0.408883 0.663173 0.51997 0.596247 0.561372 0.593846 0.548001 0.522468 
0.34005 0.18171 0.338464 0.203599 0 0.0500225 0.000212659 0.050075 0.00051031 
0.0306939 0.00378552 0.00950296 0.0357027 0.0131793 0.192857 0.0177983 0.0774394 0.0185852 
0.0635734 0.0267099 0.159523 0.0320906 0.0576945 
METADATA
INFORMATION 0

VertexId 1 32 int
19643 17724 16446 15037 12990 13374 13503 14654 14527 
6586 6845 6595 6976 4799 78 18951 52 19429 
16338 16585 13637 13136 19248 18988 16312 16178 14522 
14388 20038 19658 16325 16326 
METADATA
INFORMATION 0

RegionSize 1 32 int
308 693 43 129 14 17 3 3 1 
45 179 32 77 868 96 8691 5813 3269 
1250 50 64 7052 63 77 26 1672 19 
1116 37 179 4 1027 
METADATA
INFORMATION 0

RegionSpan 1 32 int
15 84 11 21 3 9 1 1 4 
3 100 4 96 39 26 154 128 30 
25 9 11 102 4 96 6 36 6 
14 5 100 1 23 
METADATA
INFORMATION 0

