# vtk DataFile Version 4.2
vtk output
ASCII
DATASET UNSTRUCTURED_GRID
POINTS 28 float
66 154 0 66 138 0 63 128 0 
63 124 0 63 121 0 63 104 0 
62 112 0 67 51 0 64 54 0 
58 51 0 61 53 0 63 37 0 
34 0 0 117 148 0 112 0 0 
25 151 0 44 105 0 56 107 0 
77 151 0 81 153 0 55 129 0 
46 127 0 55 156 0 51 152 0 
74 127 0 82 125 0 67 114 0 
70 113 0 
METADATA
INFORMATION 2
NAME L2_NORM_RANGE LOCATION vtkDataArray
DATA 2 34 188.661 
NAME L2_NORM_FINITE_RANGE LOCATION vtkDataArray
DATA 2 34 188.661 

CELL_TYPES 0

POINT_DATA 28
SCALARS CriticalType int
LOOKUP_TABLE default
3 2 3 2 3 3 2 3 2 
3 2 0 1 0 1 0 1 0 
0 1 0 1 0 1 0 1 0 
1 
METADATA
INFORMATION 0

FIELD FieldData 5
NodeId 1 28 int
0 1 2 3 4 5 6 7 8 
9 10 11 12 13 14 15 16 17 
18 19 20 21 22 23 24 25 26 
27 
METADATA
INFORMATION 0

Scalar 1 28 float
0.761835 0.411059 0.624635 0.574765 0.605447 0.598782 0.506651 0.340201 0.203882 
0.338347 0.182041 0 0.0500311 0.000298304 0.0500483 0.000523695 0.0339284 0.00554712 
0.00743191 0.192284 0.00873651 0.0340055 0.0158053 0.155015 0.0168023 0.0516049 0.0650875 
0.090063 
METADATA
INFORMATION 0

VertexId 1 28 int
19778 17730 16447 15935 15551 13375 14398 6595 6976 
6586 6845 4799 34 19061 112 19353 13484 13752 
19405 19665 16567 16302 20023 19507 16330 16082 14659 
14534 
METADATA
INFORMATION 0

RegionSize 1 28 int
297 707 14 40 3 44 105 34 80 
45 233 1050 174 8852 2717 3878 32 63 
59 80 52 7127 36 233 35 5908 8 
1079 
METADATA
INFORMATION 0

RegionSpan 1 28 int
16 84 4 12 3 8 26 4 100 
3 99 47 78 148 128 49 22 12 
4 100 9 127 5 99 8 16 3 
43 
METADATA
INFORMATION 0

