# vtk DataFile Version 4.2
vtk output
ASCII
DATASET UNSTRUCTURED_GRID
POINTS 32 float
60 138 0 59 153 0 61 117 0 
62 128 0 62 104 0 62 101 0 
63 105 0 63 113 0 62 114 0 
61 53 0 58 51 0 64 54 0 
67 51 0 63 37 0 78 0 0 
7 148 0 52 0 0 101 151 0 
82 127 0 73 129 0 69 106 0 
80 102 0 48 150 0 44 148 0 
56 127 0 50 126 0 58 113 0 
52 112 0 70 156 0 74 153 0 
69 127 0 70 127 0 
METADATA
INFORMATION 2
NAME L2_NORM_RANGE LOCATION vtkDataArray
DATA 2 52 181.665 
NAME L2_NORM_FINITE_RANGE LOCATION vtkDataArray
DATA 2 52 181.665 

CELLS 31 93
2 0 1 
2 2 3 
2 4 5 
2 4 6 
2 7 8 
2 9 10 
2 11 12 
2 13 14 
2 15 16 
2 17 18 
2 19 18 
2 20 21 
2 22 23 
2 24 25 
2 26 27 
2 28 29 
2 30 31 
2 7 4 
2 18 21 
2 2 7 
2 21 14 
2 0 2 
2 14 16 
2 11 0 
2 16 31 
2 23 11 
2 31 27 
2 9 23 
2 27 25 
2 29 9 
2 25 29 

CELL_TYPES 31
3
3
3
3
3
3
3
3
3
3
3
3
3
3
3
3
3
3
3
3
3
3
3
3
3
3
3
3
3
3
3

CELL_DATA 31
SCALARS SegmentationId int
LOOKUP_TABLE default
30 29 28 27 26 25 24 0 1 
2 3 4 5 6 7 8 9 21 
12 20 13 22 10 23 11 14 18 
19 16 17 15 
METADATA
INFORMATION 0

FIELD FieldData 4
upNodeId 1 31 int
0 2 4 6 7 9 11 14 16 
18 18 21 23 25 27 29 31 5 
21 8 14 3 16 1 31 12 27 
23 25 10 29 
METADATA
INFORMATION 0

downNodeId 1 31 int
1 3 5 5 8 10 12 13 15 
17 19 20 22 24 26 28 30 8 
18 3 21 1 14 12 16 23 31 
10 27 29 25 
METADATA
INFORMATION 0

RegionSize 1 31 int
308 43 14 3 3 45 32 868 8691 
3269 50 64 63 26 19 37 4 17 
1250 1 7052 129 96 693 5813 77 1027 
75 1116 179 1672 
METADATA
INFORMATION 0

RegionSpan 1 31 double
15.033296585 11.045360565 3 1.4142135382 1.4142135382 3.6055512428 4.2426404953 39.924930573 154.6900177 
30.610456467 9.2195444107 11.704699516 4.4721360207 6.0827627182 6.0827627182 5 1 9.0553855896 
25.079872131 4.4721360207 102.01960754 21.023796082 26 84.095184326 128.26924133 96.104110718 23.430749893 
96.509063721 14.14213562 100.84146118 36.124782562 
METADATA
INFORMATION 0

POINT_DATA 32
FIELD FieldData 2
Scalar 1 32 float
0.408883 0.751567 0.51997 0.663173 0.561372 0.596247 0.593846 0.522468 0.548001 
0.18171 0.34005 0.203599 0.338464 0 0.0500225 0.000212659 0.050075 0.00051031 
0.0306939 0.00378552 0.00950296 0.0357027 0.0131793 0.192857 0.0177983 0.0774394 0.0185852 
0.0635734 0.0267099 0.159523 0.0320906 0.0576945 
METADATA
INFORMATION 0

ttkMaskScalarField 1 32 char
0 0 0 0 0 0 0 0 0 
0 0 0 0 0 0 0 0 0 
0 0 0 0 0 0 0 0 0 
0 0 0 0 0 
METADATA
INFORMATION 0

