# vtk DataFile Version 4.2
vtk output
ASCII
DATASET UNSTRUCTURED_GRID
POINTS 26 float
66 138 0 67 154 0 63 113 0 
63 126 0 63 104 0 64 54 0 
67 51 0 61 53 0 58 51 0 
63 37 0 40 0 0 122 148 0 
86 0 0 28 153 0 46 105 0 
56 106 0 78 152 0 82 154 0 
74 127 0 82 125 0 57 126 0 
56 125 0 56 157 0 52 154 0 
67 114 0 70 112 0 
METADATA
INFORMATION 2
NAME L2_NORM_RANGE LOCATION vtkDataArray
DATA 2 40 191.802 
NAME L2_NORM_FINITE_RANGE LOCATION vtkDataArray
DATA 2 40 191.802 

CELLS 25 75
2 0 1 
2 2 3 
2 2 4 
2 5 6 
2 7 8 
2 9 10 
2 11 12 
2 13 14 
2 15 14 
2 16 17 
2 18 19 
2 20 21 
2 22 23 
2 24 25 
2 0 2 
2 14 10 
2 5 0 
2 10 12 
2 17 5 
2 12 21 
2 7 17 
2 21 19 
2 23 7 
2 19 25 
2 25 23 

CELL_TYPES 25
3
3
3
3
3
3
3
3
3
3
3
3
3
3
3
3
3
3
3
3
3
3
3
3
3

CELL_DATA 25
SCALARS SegmentationId int
LOOKUP_TABLE default
24 23 22 21 20 0 1 2 3 
4 5 6 7 8 18 11 19 9 
12 10 17 14 15 13 16 
METADATA
INFORMATION 0

FIELD FieldData 4
upNodeId 1 25 int
0 2 4 5 7 10 12 14 14 
17 19 21 23 25 3 10 1 12 
6 21 17 19 8 25 23 
METADATA
INFORMATION 0

downNodeId 1 25 int
1 3 3 6 8 9 11 13 15 
16 18 20 22 24 1 14 6 10 
17 12 8 21 23 19 25 
METADATA
INFORMATION 0

RegionSize 1 25 int
381 44 41 34 45 875 8355 4044 54 
59 38 1 41 7 181 7480 552 124 
91 3104 109 1317 193 4342 1230 
METADATA
INFORMATION 0

RegionSpan 1 25 double
16.031219482 13 9 4.2426404953 3.6055512428 43.566040039 152.31546021 51.264022827 10.049875259 
4.4721360207 8.2462110519 1.4142135382 5 3.6055512428 25.179357529 105.17128754 84.023803711 46 
101.60708618 128.54960632 103.16007233 26 101.40019989 17.691806793 45.694637299 
METADATA
INFORMATION 0

POINT_DATA 26
FIELD FieldData 2
Scalar 1 26 float
0.350473 0.78006 0.525482 0.642358 0.602344 0.205095 0.338285 0.178229 0.335479 
0 0.0500096 0.000151855 0.0500402 0.000469695 0.0326332 0.00782544 0.00828762 0.192911 
0.0175242 0.0530301 0.0227601 0.0518407 0.0260927 0.158462 0.0601727 0.0864137 
METADATA
INFORMATION 0

ttkMaskScalarField 1 26 char
0 0 0 0 0 0 0 0 0 
0 0 0 0 0 0 0 0 0 
0 0 0 0 0 0 0 0 
METADATA
INFORMATION 0

