# vtk DataFile Version 4.2
vtk output
ASCII
DATASET UNSTRUCTURED_GRID
POINTS 30 float
66 138 0 67 154 0 61 113 0 
63 126 0 63 107 0 62 108 0 
63 105 0 64 96 0 63 93 0 
64 98 0 64 54 0 67 51 0 
61 53 0 58 51 0 63 37 0 
41 0 0 120 148 0 116 0 0 
27 153 0 45 109 0 55 108 0 
56 157 0 52 155 0 78 152 0 
81 151 0 70 126 0 72 126 0 
74 127 0 81 125 0 63 103 0 

METADATA
INFORMATION 2
NAME L2_NORM_RANGE LOCATION vtkDataArray
DATA 2 41 190.536 
NAME L2_NORM_FINITE_RANGE LOCATION vtkDataArray
DATA 2 41 190.536 

CELLS 29 87
2 0 1 
2 2 3 
2 4 5 
2 4 6 
2 7 8 
2 7 9 
2 10 11 
2 12 13 
2 14 15 
2 16 17 
2 18 19 
2 20 19 
2 21 22 
2 23 24 
2 25 26 
2 27 28 
2 29 4 
2 29 7 
2 19 15 
2 2 29 
2 15 17 
2 0 2 
2 17 28 
2 10 0 
2 28 26 
2 24 10 
2 26 22 
2 12 24 
2 22 12 

CELL_TYPES 29
3
3
3
3
3
3
3
3
3
3
3
3
3
3
3
3
3
3
3
3
3
3
3
3
3
3
3
3
3

CELL_DATA 29
SCALARS SegmentationId int
LOOKUP_TABLE default
28 27 26 25 24 23 22 21 0 
1 2 3 4 5 6 7 18 17 
10 16 8 19 9 20 14 12 13 
15 11 
METADATA
INFORMATION 0

FIELD FieldData 4
upNodeId 1 29 int
0 2 4 6 7 9 10 12 15 
17 19 19 22 24 26 28 5 8 
15 29 17 3 28 1 26 11 22 
24 13 
METADATA
INFORMATION 0

downNodeId 1 29 int
1 3 5 5 8 8 11 13 14 
16 18 20 21 23 25 27 29 29 
19 3 15 1 17 11 28 24 26 
13 22 
METADATA
INFORMATION 0

RegionSize 1 29 int
370 50 2 2 11 6 34 45 961 
8391 3635 63 43 57 1 35 5 4 
7765 8 230 171 4800 564 1053 129 4092 
78 133 
METADATA
INFORMATION 0

RegionSpan 1 29 double
16.031219482 13.152946472 1.4142135382 2 3.1622776985 2 4.2426404953 3.6055512428 43.046485901 
148.05404663 47.539455414 10.049875259 4.4721360207 3.1622776985 2 7.2801098824 4 7.0710678101 
109.07337189 10.198039055 75 25.495098114 129.80755615 84.023803711 9.0553855896 98.478424072 35.227828979 
100.01999664 102.39628601 
METADATA
INFORMATION 0

POINT_DATA 30
FIELD FieldData 2
Scalar 1 30 float
0.35806 0.781754 0.508562 0.660596 0.553735 0.589306 0.581736 0.542418 0.580705 
0.568934 0.205088 0.338201 0.178317 0.335768 0 0.0500203 0.000179947 0.050048 
0.000393146 0.0312585 0.00267153 0.00614482 0.163205 0.0123516 0.189507 0.0123836 0.0564136 
0.012732 0.0537672 0.528636 
METADATA
INFORMATION 0

ttkMaskScalarField 1 30 char
0 0 0 0 0 0 0 0 0 
0 0 0 0 0 0 0 0 0 
0 0 0 0 0 0 0 0 0 
0 0 0 
METADATA
INFORMATION 0

