# vtk DataFile Version 4.2
vtk output
ASCII
DATASET UNSTRUCTURED_GRID
POINTS 32 float
58 138 0 58 154 0 65 119 0 
60 126 0 62 98 0 62 109 0 
62 92 0 61 53 0 58 51 0 
64 54 0 67 51 0 63 37 0 
83 0 0 5 147 0 12 0 0 
98 152 0 86 114 0 73 112 0 
69 156 0 73 153 0 47 151 0 
43 149 0 70 129 0 77 126 0 
51 127 0 44 125 0 54 126 0 
53 127 0 68 111 0 69 112 0 
67 110 0 68 110 0 
METADATA
INFORMATION 2
NAME L2_NORM_RANGE LOCATION vtkDataArray
DATA 2 12 180.854 
NAME L2_NORM_FINITE_RANGE LOCATION vtkDataArray
DATA 2 12 180.854 

CELLS 31 93
2 0 1 
2 2 3 
2 4 5 
2 4 6 
2 7 8 
2 9 10 
2 11 12 
2 13 14 
2 15 16 
2 17 16 
2 18 19 
2 20 21 
2 22 23 
2 24 25 
2 26 27 
2 28 29 
2 30 31 
2 2 4 
2 16 23 
2 0 2 
2 23 12 
2 9 0 
2 12 14 
2 21 9 
2 14 25 
2 7 21 
2 25 27 
2 19 7 
2 27 29 
2 31 19 
2 29 31 

CELL_TYPES 31
3
3
3
3
3
3
3
3
3
3
3
3
3
3
3
3
3
3
3
3
3
3
3
3
3
3
3
3
3
3
3

CELL_DATA 31
SCALARS SegmentationId int
LOOKUP_TABLE default
30 29 28 27 26 25 0 1 2 
3 4 5 6 7 8 9 10 22 
13 23 16 24 11 15 12 21 17 
14 18 20 19 
METADATA
INFORMATION 0

FIELD FieldData 4
upNodeId 1 31 int
0 2 4 6 7 9 12 14 16 
16 19 21 23 25 27 29 31 5 
23 3 12 1 14 10 25 21 27 
8 29 19 31 
METADATA
INFORMATION 0

downNodeId 1 31 int
1 3 5 5 8 10 11 13 15 
17 18 20 22 24 26 28 30 3 
16 1 23 10 12 21 14 8 25 
19 27 31 29 
METADATA
INFORMATION 0

RegionSize 1 31 int
336 70 14 11 45 32 902 7847 2865 
87 39 59 29 34 1 1 0 80 
1221 65 7756 661 189 108 5820 62 1866 
206 955 1003 372 
METADATA
INFORMATION 0

RegionSpan 1 31 double
16 8.6023254395 11 6 3.6055512428 4.2426404953 42.059482574 147.16656494 39.849716187 
13.152946472 5 4.4721360207 7.615773201 7.2801098824 1.4142135382 1.4142135382 1 21.21320343 
15 20.248456955 126.14277649 84.214012146 71 97.293373108 129.03100586 97.672920227 9.2195444107 
100.71743011 21.931713104 43.289722443 2.2360680103 
METADATA
INFORMATION 0

POINT_DATA 32
FIELD FieldData 2
Scalar 1 32 float
0.377346 0.761723 0.421334 0.650139 0.548402 0.597309 0.574054 0.181433 0.34053 
0.203928 0.338168 0 0.0500184 0.000195849 0.050037 0.000462827 0.0272009 0.00170545 
0.00327436 0.15882 0.00543425 0.190772 0.00748423 0.0325705 0.0148104 0.0559384 0.0362638 
0.067271 0.0412666 0.0832298 0.0691319 0.0947208 
METADATA
INFORMATION 0

ttkMaskScalarField 1 32 char
0 0 0 0 0 0 0 0 0 
0 0 0 0 0 0 0 0 0 
0 0 0 0 0 0 0 0 0 
0 0 0 0 0 
METADATA
INFORMATION 0

