# vtk DataFile Version 4.2
vtk output
ASCII
DATASET UNSTRUCTURED_GRID
POINTS 26 float
66 138 0 67 154 0 61 115 0 
64 128 0 64 102 0 62 108 0 
63 92 0 64 54 0 67 51 0 
61 53 0 58 51 0 63 37 0 
43 0 0 121 148 0 82 0 0 
27 153 0 45 108 0 56 109 0 
56 157 0 52 155 0 78 152 0 
81 151 0 73 127 0 80 126 0 
57 126 0 56 126 0 
METADATA
INFORMATION 2
NAME L2_NORM_RANGE LOCATION vtkDataArray
DATA 2 43 191.167 
NAME L2_NORM_FINITE_RANGE LOCATION vtkDataArray
DATA 2 43 191.167 

CELLS 25 75
2 0 1 
2 2 3 
2 4 5 
2 4 6 
2 7 8 
2 9 10 
2 11 12 
2 13 14 
2 15 16 
2 17 16 
2 18 19 
2 20 21 
2 22 23 
2 24 25 
2 2 4 
2 16 12 
2 0 2 
2 12 14 
2 7 0 
2 14 23 
2 21 7 
2 23 25 
2 9 21 
2 25 19 
2 19 9 

CELL_TYPES 25
3
3
3
3
3
3
3
3
3
3
3
3
3
3
3
3
3
3
3
3
3
3
3
3
3

CELL_DATA 25
SCALARS SegmentationId int
LOOKUP_TABLE default
24 23 22 21 20 19 0 1 2 
3 4 5 6 7 16 10 17 8 
18 9 12 13 15 14 11 
METADATA
INFORMATION 0

FIELD FieldData 4
upNodeId 1 25 int
0 2 4 6 7 9 12 14 16 
16 19 21 23 25 5 12 3 14 
1 23 8 25 21 19 10 
METADATA
INFORMATION 0

downNodeId 1 25 int
1 3 5 5 8 10 11 13 15 
17 18 20 22 24 3 16 1 12 
8 14 21 23 10 25 19 
METADATA
INFORMATION 0

RegionSize 1 25 int
366 48 13 20 34 45 878 8787 3728 
65 42 59 36 2 16 7620 150 193 
572 6264 127 1006 87 2466 118 
METADATA
INFORMATION 0

RegionSpan 1 25 double
16.031219482 13.341664314 6.324555397 10.049875259 4.2426404953 3.6055512428 42.059482574 153.05227661 48.46648407 
11.045360565 4.4721360207 3.1622776985 7.0710678101 1 13.341664314 108.01851654 23.537204742 39 
84.023803711 126.01586914 98.478424072 24 100.01999664 29.274562836 102.39628601 
METADATA
INFORMATION 0

POINT_DATA 26
FIELD FieldData 2
Scalar 1 26 float
0.362545 0.776583 0.51105 0.692387 0.534904 0.597138 0.565208 0.205588 0.338156 
0.177968 0.33557 0 0.050004 0.000233944 0.0500712 0.000451739 0.0317216 0.00517591 
0.00613395 0.164739 0.00727365 0.188481 0.00894268 0.0594066 0.041669 0.0668151 
METADATA
INFORMATION 0

ttkMaskScalarField 1 26 char
0 0 0 0 0 0 0 0 0 
0 0 0 0 0 0 0 0 0 
0 0 0 0 0 0 0 0 
METADATA
INFORMATION 0

