# vtk DataFile Version 4.2
vtk output
ASCII
DATASET UNSTRUCTURED_GRID
POINTS 26 float
66 138 0 66 153 0 62 112 0 
63 126 0 62 106 0 63 105 0 
62 107 0 64 54 0 67 51 0 
61 53 0 58 51 0 63 37 0 
31 0 0 119 147 0 83 125 0 
26 151 0 46 106 0 56 107 0 
75 126 0 78 151 0 81 151 0 
55 155 0 52 153 0 71 125 0 
72 126 0 79 0 0 
METADATA
INFORMATION 2
NAME L2_NORM_RANGE LOCATION vtkDataArray
DATA 2 31 189.13 
NAME L2_NORM_FINITE_RANGE LOCATION vtkDataArray
DATA 2 31 189.13 

CELLS 25 75
2 0 1 
2 2 3 
2 4 5 
2 4 6 
2 7 8 
2 9 10 
2 11 12 
2 13 14 
2 15 16 
2 17 16 
2 18 14 
2 19 20 
2 21 22 
2 23 24 
2 2 4 
2 16 12 
2 14 25 
2 0 2 
2 12 25 
2 7 0 
2 25 24 
2 20 7 
2 24 22 
2 9 20 
2 22 9 

CELL_TYPES 25
3
3
3
3
3
3
3
3
3
3
3
3
3
3
3
3
3
3
3
3
3
3
3
3
3

CELL_DATA 25
SCALARS SegmentationId int
LOOKUP_TABLE default
24 23 22 21 20 19 0 1 2 
3 4 5 6 7 16 10 9 17 
8 18 14 11 13 15 12 
METADATA
INFORMATION 0

FIELD FieldData 4
upNodeId 1 25 int
0 2 4 6 7 9 12 14 16 
16 14 20 22 24 5 12 25 3 
25 1 24 8 22 20 10 
METADATA
INFORMATION 0

downNodeId 1 25 int
1 3 5 5 8 10 11 13 15 
17 18 19 21 23 3 16 14 1 
12 8 25 20 24 10 22 
METADATA
INFORMATION 0

RegionSize 1 25 int
329 53 5 2 34 45 954 8099 4035 
52 38 60 33 1 34 7221 758 142 
206 639 6450 109 3140 44 259 
METADATA
INFORMATION 0

RegionSpan 1 25 double
15 14.035668373 1.4142135382 1 4.2426404953 3.6055512428 48.918300629 42.190044403 49.244289398 
10.049875259 8.0622577667 3 3.6055512428 1.4142135382 6 107.05606079 125.0639801 26.305892944 
48 84.023803711 126.19429779 98.478424072 33.600593567 100.01999664 100.40418243 
METADATA
INFORMATION 0

POINT_DATA 26
FIELD FieldData 2
Scalar 1 26 float
0.384844 0.76215 0.517418 0.652975 0.559185 0.601292 0.586741 0.20398 0.340527 
0.181639 0.338028 0 0.0500048 8.57963e-05 0.0497847 0.000340918 0.0334478 0.00476767 
0.0173235 0.0338997 0.189227 0.0344786 0.152943 0.0350702 0.06012 0.0500711 
METADATA
INFORMATION 0

ttkMaskScalarField 1 26 char
0 0 0 0 0 0 0 0 0 
0 0 0 0 0 0 0 0 0 
0 0 0 0 0 0 0 0 
METADATA
INFORMATION 0

