# vtk DataFile Version 4.2
vtk output
ASCII
DATASET UNSTRUCTURED_GRID
POINTS 26 float
65 137 0 68 154 0 61 115 0 
64 125 0 62 108 0 63 106 0 
62 110 0 64 54 0 67 51 0 
61 53 0 58 51 0 63 37 0 
38 0 0 122 149 0 96 0 0 
27 153 0 50 111 0 56 111 0 
78 151 0 82 150 0 72 127 0 
80 125 0 57 157 0 52 155 0 
56 125 0 55 124 0 
METADATA
INFORMATION 2
NAME L2_NORM_RANGE LOCATION vtkDataArray
DATA 2 38 192.575 
NAME L2_NORM_FINITE_RANGE LOCATION vtkDataArray
DATA 2 38 192.575 

CELLS 25 75
2 0 1 
2 2 3 
2 4 5 
2 4 6 
2 7 8 
2 9 10 
2 11 12 
2 13 14 
2 15 16 
2 17 16 
2 18 19 
2 20 21 
2 22 23 
2 24 25 
2 2 4 
2 16 12 
2 0 2 
2 12 14 
2 7 0 
2 14 21 
2 19 7 
2 21 25 
2 9 19 
2 25 23 
2 23 9 

CELL_TYPES 25
3
3
3
3
3
3
3
3
3
3
3
3
3
3
3
3
3
3
3
3
3
3
3
3
3

CELL_DATA 25
SCALARS SegmentationId int
LOOKUP_TABLE default
24 23 22 21 20 19 0 1 2 
3 4 5 6 7 16 10 17 8 
18 9 11 12 15 14 13 
METADATA
INFORMATION 0

FIELD FieldData 4
upNodeId 1 25 int
0 2 4 6 7 9 12 14 16 
16 19 21 23 25 5 12 3 14 
1 21 8 25 19 23 10 
METADATA
INFORMATION 0

downNodeId 1 25 int
1 3 5 5 8 10 11 13 15 
17 18 20 22 24 3 16 1 12 
8 14 19 21 10 25 23 
METADATA
INFORMATION 0

RegionSize 1 25 int
421 31 4 2 34 45 966 8478 4050 
26 61 40 42 4 29 7347 218 177 
510 6692 113 1845 61 1389 157 
METADATA
INFORMATION 0

RegionSpan 1 25 double
17.262676239 10.440306664 2.2360680103 2 4.2426404953 3.6055512428 44.65422821 151.25144958 47.885280609 
6 4.123105526 8.2462110519 5.3851647377 1.4142135382 7.0710678101 111.64676666 22.360679626 58 
83.006027222 126.01983643 97.672920227 25.019992828 99.247169495 31.144823074 102.39628601 
METADATA
INFORMATION 0

POINT_DATA 26
FIELD FieldData 2
Scalar 1 26 float
0.328954 0.769954 0.539564 0.669488 0.572135 0.600253 0.598072 0.203555 0.339982 
0.180893 0.337787 0 0.050032 0.000163371 0.0500622 0.000699701 0.0327375 0.00603486 
0.0180437 0.189145 0.0232811 0.0606918 0.0330177 0.165025 0.0357668 0.0849255 
METADATA
INFORMATION 0

ttkMaskScalarField 1 26 char
0 0 0 0 0 0 0 0 0 
0 0 0 0 0 0 0 0 0 
0 0 0 0 0 0 0 0 
METADATA
INFORMATION 0

