# vtk DataFile Version 4.2
vtk output
ASCII
DATASET UNSTRUCTURED_GRID
POINTS 32 float
60 138 0 58 154 0 61 119 0 
62 128 0 62 99 0 62 105 0 
62 93 0 63 115 0 61 53 0 
58 51 0 64 54 0 67 51 0 
63 37 0 89 0 0 6 148 0 
50 0 0 99 152 0 82 127 0 
73 127 0 70 108 0 81 107 0 
55 129 0 48 126 0 69 157 0 
74 154 0 47 152 0 44 152 0 
68 127 0 70 127 0 59 115 0 
54 114 0 64 114 0 
METADATA
INFORMATION 2
NAME L2_NORM_RANGE LOCATION vtkDataArray
DATA 2 50 181.397 
NAME L2_NORM_FINITE_RANGE LOCATION vtkDataArray
DATA 2 50 181.397 

CELLS 31 93
2 0 1 
2 2 3 
2 4 5 
2 4 6 
2 2 7 
2 8 9 
2 10 11 
2 12 13 
2 14 15 
2 16 17 
2 18 17 
2 19 20 
2 21 22 
2 23 24 
2 25 26 
2 27 28 
2 29 30 
2 31 4 
2 31 2 
2 17 20 
2 0 31 
2 20 13 
2 10 0 
2 13 15 
2 26 10 
2 15 28 
2 8 26 
2 28 22 
2 24 8 
2 22 30 
2 30 24 

CELL_TYPES 31
3
3
3
3
3
3
3
3
3
3
3
3
3
3
3
3
3
3
3
3
3
3
3
3
3
3
3
3
3
3
3

CELL_DATA 31
SCALARS SegmentationId int
LOOKUP_TABLE default
30 29 28 27 26 25 24 0 1 
2 3 4 5 6 7 8 9 21 
22 12 20 13 23 10 16 11 19 
17 15 14 18 
METADATA
INFORMATION 0

FIELD FieldData 4
upNodeId 1 31 int
0 2 4 6 7 8 10 13 15 
17 17 20 22 24 26 28 30 5 
3 20 31 13 1 15 11 28 26 
22 9 30 24 
METADATA
INFORMATION 0

downNodeId 1 31 int
1 3 5 5 3 9 11 12 14 
16 18 19 21 23 25 27 29 31 
31 17 1 20 11 13 26 15 9 
28 24 22 30 
METADATA
INFORMATION 0

RegionSize 1 31 int
345 42 12 12 5 45 32 925 8316 
3028 53 66 29 41 61 3 13 23 
1 1075 128 7513 645 154 110 7443 41 
484 160 254 1677 
METADATA
INFORMATION 0

RegionSpan 1 31 double
16.124515533 9.0553855896 6 6 4.4721360207 3.6055512428 4.2426404953 45.221675873 154.40206909 
30.232433319 9 11.045360565 7.615773201 5.8309516907 3 2 5.0990195274 15.132745743 
5.8309516907 20.02498436 24.331050873 107.29864502 84.095184326 39 100.01999664 128.56515503 100.44898987 
22.022714615 101.83319855 13.416407585 44.721359253 
METADATA
INFORMATION 0

POINT_DATA 32
FIELD FieldData 2
Scalar 1 32 float
0.382209 0.770347 0.508287 0.718078 0.550385 0.597572 0.580479 0.541658 0.181093 
0.340139 0.203093 0.337757 0 0.050005 0.000240786 0.0500472 0.000615097 0.0287104 
0.00118801 0.00709651 0.0332676 0.00944377 0.0740102 0.0242723 0.163364 0.0271584 0.188047 
0.0316571 0.0676879 0.0464728 0.0780586 0.506406 
METADATA
INFORMATION 0

ttkMaskScalarField 1 32 char
0 0 0 0 0 0 0 0 0 
0 0 0 0 0 0 0 0 0 
0 0 0 0 0 0 0 0 0 
0 0 0 0 0 
METADATA
INFORMATION 0

