# vtk DataFile Version 4.2
vtk output
ASCII
DATASET UNSTRUCTURED_GRID
POINTS 28 float
60 138 0 57 154 0 62 120 0 
61 128 0 63 107 0 62 106 0 
63 108 0 62 118 0 61 53 0 
58 51 0 64 54 0 67 51 0 
63 37 0 75 0 0 0 147 0 
41 0 0 98 152 0 80 110 0 
71 109 0 47 150 0 43 149 0 
69 156 0 73 154 0 56 127 0 
50 126 0 68 126 0 70 126 0 
64 114 0 
METADATA
INFORMATION 2
NAME L2_NORM_RANGE LOCATION vtkDataArray
DATA 2 41 180.854 
NAME L2_NORM_FINITE_RANGE LOCATION vtkDataArray
DATA 2 41 180.854 

CELLS 27 81
2 0 1 
2 2 3 
2 4 5 
2 4 6 
2 2 7 
2 8 9 
2 10 11 
2 12 13 
2 14 15 
2 16 17 
2 18 17 
2 19 20 
2 21 22 
2 23 24 
2 25 26 
2 27 4 
2 27 2 
2 17 13 
2 0 27 
2 13 15 
2 10 0 
2 15 24 
2 20 10 
2 24 26 
2 8 20 
2 26 22 
2 22 8 

CELL_TYPES 27
3
3
3
3
3
3
3
3
3
3
3
3
3
3
3
3
3
3
3
3
3
3
3
3
3
3
3

CELL_DATA 27
SCALARS SegmentationId int
LOOKUP_TABLE default
26 25 24 23 22 21 20 0 1 
2 3 4 5 6 7 17 18 10 
16 8 19 9 11 13 15 14 12 

METADATA
INFORMATION 0

FIELD FieldData 4
upNodeId 1 27 int
0 2 4 6 7 8 10 13 15 
17 17 20 22 24 26 5 3 13 
27 15 1 24 11 26 20 22 9 

METADATA
INFORMATION 0

downNodeId 1 27 int
1 3 5 5 3 9 11 12 14 
16 18 19 21 23 25 27 27 17 
1 13 11 15 20 24 9 26 22 

METADATA
INFORMATION 0

RegionSize 1 27 int
362 40 5 2 3 45 32 781 8136 
3858 45 60 41 24 3 54 9 8067 
129 233 607 8118 82 568 83 1180 173 

METADATA
INFORMATION 0

RegionSpan 1 27 double
16.278820038 8.0622577667 1.4142135382 1 2 3.6055512428 4.2426404953 38.89730072 152.61061096 
45.694637299 9.0553855896 4.123105526 4.4721360207 6.0827627182 2 7.0710678101 6.324555397 110.1135788 
24.331050873 34 84.095184326 126.32102203 97.293373108 20 97.672920227 28.160255432 101.71037292 

METADATA
INFORMATION 0

POINT_DATA 28
FIELD FieldData 2
Scalar 1 28 float
0.368006 0.762679 0.494061 0.700926 0.562904 0.606624 0.594839 0.528055 0.181534 
0.340501 0.203918 0.338303 0 0.0499945 9.8737e-05 0.0500786 0.000506333 0.0312393 
0.00547151 0.0131698 0.193016 0.0140893 0.161158 0.0209311 0.0773349 0.0367669 0.0900816 
0.480405 
METADATA
INFORMATION 0

ttkMaskScalarField 1 28 char
0 0 0 0 0 0 0 0 0 
0 0 0 0 0 0 0 0 0 
0 0 0 0 0 0 0 0 0 
0 
METADATA
INFORMATION 0

