# vtk DataFile Version 4.2
vtk output
ASCII
DATASET UNSTRUCTURED_GRID
POINTS 32 float
59 138 0 58 154 0 64 114 0 
62 126 0 61 103 0 63 107 0 
62 93 0 61 53 0 58 51 0 
64 54 0 67 51 0 63 37 0 
81 0 0 7 147 0 35 0 0 
100 152 0 83 108 0 71 108 0 
71 127 0 81 127 0 67 107 0 
68 108 0 53 127 0 46 126 0 
70 156 0 74 153 0 68 127 0 
69 127 0 48 150 0 44 153 0 
59 115 0 55 114 0 
METADATA
INFORMATION 2
NAME L2_NORM_RANGE LOCATION vtkDataArray
DATA 2 35 181.945 
NAME L2_NORM_FINITE_RANGE LOCATION vtkDataArray
DATA 2 35 181.945 

CELLS 31 93
2 0 1 
2 2 3 
2 4 5 
2 4 6 
2 7 8 
2 9 10 
2 11 12 
2 13 14 
2 15 16 
2 17 16 
2 18 19 
2 20 21 
2 22 23 
2 24 25 
2 26 27 
2 28 29 
2 30 31 
2 2 4 
2 16 19 
2 0 2 
2 19 12 
2 9 0 
2 12 14 
2 29 9 
2 14 21 
2 7 29 
2 21 27 
2 25 7 
2 27 23 
2 31 25 
2 23 31 

CELL_TYPES 31
3
3
3
3
3
3
3
3
3
3
3
3
3
3
3
3
3
3
3
3
3
3
3
3
3
3
3
3
3
3
3

CELL_DATA 31
SCALARS SegmentationId int
LOOKUP_TABLE default
30 29 28 27 26 25 0 1 2 
3 4 5 6 7 8 9 10 22 
13 23 14 24 11 19 12 21 15 
17 18 20 16 
METADATA
INFORMATION 0

FIELD FieldData 4
upNodeId 1 31 int
0 2 4 6 7 9 12 14 16 
16 19 21 23 25 27 29 31 5 
19 3 12 1 14 10 21 29 27 
8 23 25 31 
METADATA
INFORMATION 0

downNodeId 1 31 int
1 3 5 5 8 10 11 13 15 
17 18 20 22 24 26 28 30 3 
16 1 19 10 12 29 14 8 21 
25 27 31 23 
METADATA
INFORMATION 0

RegionSize 1 31 int
325 61 8 19 45 32 816 8365 3705 
73 49 0 34 37 2 58 7 30 
112 102 7797 667 220 107 5529 56 324 
177 952 1235 1792 
METADATA
INFORMATION 0

RegionSpan 1 31 double
16.031219482 12.165525436 4.4721360207 10.049875259 3.6055512428 4.2426404953 41.146080017 149.64291382 47.169906616 
12 10 1.4142135382 7.0710678101 5 1 5 4.123105526 11.401754379 
19.104972839 24.515300751 127 84.148681641 46 101 112.92918396 101.43470764 19.026298523 
100.84146118 23.021728516 43.382022858 15 
METADATA
INFORMATION 0

POINT_DATA 32
FIELD FieldData 2
Scalar 1 32 float
0.392916 0.758333 0.472383 0.690968 0.53615 0.588673 0.579037 0.181468 0.340388 
0.203943 0.338296 0 0.0499937 0.000347174 0.0500453 0.000555256 0.0320517 0.00549666 
0.00592238 0.0324014 0.00678182 0.0558874 0.0112407 0.062038 0.0199856 0.162312 0.0220487 
0.056966 0.0289564 0.189686 0.0515078 0.088124 
METADATA
INFORMATION 0

ttkMaskScalarField 1 32 char
0 0 0 0 0 0 0 0 0 
0 0 0 0 0 0 0 0 0 
0 0 0 0 0 0 0 0 0 
0 0 0 0 0 
METADATA
INFORMATION 0

