# vtk DataFile Version 4.2
vtk output
ASCII
DATASET UNSTRUCTURED_GRID
POINTS 26 float
65 136 0 68 154 0 63 115 0 
62 125 0 64 102 0 63 104 0 
63 94 0 64 54 0 67 51 0 
61 53 0 58 51 0 63 37 0 
41 0 0 118 148 0 80 0 0 
26 153 0 45 107 0 55 107 0 
69 125 0 80 124 0 56 125 0 
55 125 0 78 152 0 81 153 0 
56 157 0 51 154 0 
METADATA
INFORMATION 2
NAME L2_NORM_RANGE LOCATION vtkDataArray
DATA 2 41 189.283 
NAME L2_NORM_FINITE_RANGE LOCATION vtkDataArray
DATA 2 41 189.283 

CELLS 25 75
2 0 1 
2 2 3 
2 4 5 
2 4 6 
2 7 8 
2 9 10 
2 11 12 
2 13 14 
2 15 16 
2 17 16 
2 18 19 
2 20 21 
2 22 23 
2 24 25 
2 2 4 
2 16 12 
2 0 2 
2 12 14 
2 7 0 
2 14 19 
2 23 7 
2 19 21 
2 9 23 
2 21 25 
2 25 9 

CELL_TYPES 25
3
3
3
3
3
3
3
3
3
3
3
3
3
3
3
3
3
3
3
3
3
3
3
3
3

CELL_DATA 25
SCALARS SegmentationId int
LOOKUP_TABLE default
24 23 22 21 20 19 0 1 2 
3 4 5 6 7 16 10 17 8 
18 9 13 11 15 12 14 
METADATA
INFORMATION 0

FIELD FieldData 4
upNodeId 1 25 int
0 2 4 6 7 9 12 14 16 
16 19 21 23 25 5 12 3 14 
1 19 8 21 23 25 10 
METADATA
INFORMATION 0

downNodeId 1 25 int
1 3 5 5 8 10 11 13 15 
17 18 20 22 24 3 16 1 12 
8 14 23 19 10 21 25 
METADATA
INFORMATION 0

RegionSize 1 25 int
432 46 6 18 34 45 946 8996 3825 
49 38 2 58 42 25 7358 186 36 
524 5764 135 2681 44 1345 107 
METADATA
INFORMATION 0

RegionSpan 1 25 double
18.248287201 10.049875259 2.2360680103 8.0622577667 4.2426404953 3.6055512428 43.046485901 152.80052185 49.769470215 
10 11.045360565 1 3.1622776985 5.8309516907 13.038404465 107.07473755 21.095022202 39 
82.006095886 124 100.44898987 25.019992828 101.98039246 29.274562836 101.49384308 
METADATA
INFORMATION 0

POINT_DATA 26
FIELD FieldData 2
Scalar 1 26 float
0.327096 0.753372 0.494609 0.702185 0.543056 0.586036 0.578016 0.204564 0.34038 
0.181373 0.338272 0 0.0500424 0.000167705 0.0500622 0.000696328 0.0325636 0.00221337 
0.0170526 0.0569561 0.0199064 0.0874756 0.0287997 0.185764 0.0314212 0.170217 
METADATA
INFORMATION 0

ttkMaskScalarField 1 26 char
0 0 0 0 0 0 0 0 0 
0 0 0 0 0 0 0 0 0 
0 0 0 0 0 0 0 0 
METADATA
INFORMATION 0

