# vtk DataFile Version 4.2
vtk output
ASCII
DATASET UNSTRUCTURED_GRID
POINTS 30 float
66 138 0 67 154 0 63 117 0 
63 126 0 64 102 0 63 105 0 
63 93 0 63 115 0 64 54 0 
67 51 0 61 53 0 58 51 0 
63 37 0 46 0 0 122 148 0 
119 0 0 27 153 0 45 107 0 
55 107 0 73 127 0 80 126 0 
78 152 0 82 150 0 57 126 0 
56 126 0 56 156 0 52 154 0 
67 114 0 70 113 0 62 112 0 

METADATA
INFORMATION 2
NAME L2_NORM_RANGE LOCATION vtkDataArray
DATA 2 46 191.802 
NAME L2_NORM_FINITE_RANGE LOCATION vtkDataArray
DATA 2 46 191.802 

CELLS 29 87
2 0 1 
2 2 3 
2 4 5 
2 4 6 
2 2 7 
2 8 9 
2 10 11 
2 12 13 
2 14 15 
2 16 17 
2 18 17 
2 19 20 
2 21 22 
2 23 24 
2 25 26 
2 27 28 
2 29 4 
2 29 2 
2 17 13 
2 0 29 
2 13 15 
2 8 0 
2 15 20 
2 22 8 
2 20 24 
2 10 22 
2 24 28 
2 26 10 
2 28 26 

CELL_TYPES 29
3
3
3
3
3
3
3
3
3
3
3
3
3
3
3
3
3
3
3
3
3
3
3
3
3
3
3
3
3

CELL_DATA 29
SCALARS SegmentationId int
LOOKUP_TABLE default
28 27 26 25 24 23 22 0 1 
2 3 4 5 6 7 8 19 20 
11 18 9 21 10 13 12 17 14 
15 16 
METADATA
INFORMATION 0

FIELD FieldData 4
upNodeId 1 29 int
0 2 4 6 7 8 10 13 15 
17 17 20 22 24 26 28 5 3 
13 29 15 1 20 9 24 22 28 
11 26 
METADATA
INFORMATION 0

downNodeId 1 29 int
1 3 5 5 3 9 11 12 14 
16 18 19 21 23 25 27 29 29 
17 1 13 9 15 22 20 11 24 
26 28 
METADATA
INFORMATION 0

RegionSize 1 29 int
369 50 9 18 3 34 45 851 8285 
3842 55 38 62 1 39 9 23 1 
7566 154 258 563 6775 109 914 100 1093 
170 1302 
METADATA
INFORMATION 0

RegionSpan 1 29 double
16.031219482 9 3.1622776985 9.0553855896 2 4.2426404953 3.6055512428 40.718547821 148.03039551 
49.396354675 10 7.0710678101 4.4721360207 1 4.4721360207 3.1622776985 10.198039055 5.0990195274 
107.00466919 26.305892944 73 84.023803711 131.89768982 97.672920227 24 99.247169495 19.104972839 
101.40019989 44.777225494 
METADATA
INFORMATION 0

POINT_DATA 30
FIELD FieldData 2
Scalar 1 30 float
0.360178 0.774006 0.501206 0.687272 0.542046 0.596515 0.573902 0.529417 0.205074 
0.338226 0.178298 0.335637 0 0.0500154 7.96241e-05 0.0500421 0.00057178 0.0319833 
0.00648162 0.00852494 0.059996 0.0175224 0.192371 0.0192711 0.0667803 0.0233196 0.160664 
0.05932 0.0853844 0.496357 
METADATA
INFORMATION 0

ttkMaskScalarField 1 30 char
0 0 0 0 0 0 0 0 0 
0 0 0 0 0 0 0 0 0 
0 0 0 0 0 0 0 0 0 
0 0 0 
METADATA
INFORMATION 0

