# vtk DataFile Version 4.2
vtk output
ASCII
DATASET UNSTRUCTURED_GRID
POINTS 24 float
66 138 0 66 154 0 62 112 0 
63 121 0 63 105 0 64 54 0 
67 51 0 61 53 0 58 51 0 
63 37 0 48 0 0 116 148 0 
83 124 0 25 151 0 48 107 0 
75 126 0 56 108 0 55 156 0 
51 153 0 77 152 0 80 150 0 
70 124 0 72 125 0 90 0 0 

METADATA
INFORMATION 2
NAME L2_NORM_RANGE LOCATION vtkDataArray
DATA 2 48 188.043 
NAME L2_NORM_FINITE_RANGE LOCATION vtkDataArray
DATA 2 48 188.043 

CELLS 23 69
2 0 1 
2 2 3 
2 2 4 
2 5 6 
2 7 8 
2 9 10 
2 11 12 
2 13 14 
2 15 12 
2 16 14 
2 17 18 
2 19 20 
2 21 22 
2 0 2 
2 12 23 
2 14 10 
2 5 0 
2 10 23 
2 20 5 
2 23 22 
2 7 20 
2 22 18 
2 18 7 

CELL_TYPES 23
3
3
3
3
3
3
3
3
3
3
3
3
3
3
3
3
3
3
3
3
3
3
3

CELL_DATA 23
SCALARS SegmentationId int
LOOKUP_TABLE default
22 21 20 19 18 0 1 2 3 
4 5 6 7 16 9 10 17 8 
12 14 15 13 11 
METADATA
INFORMATION 0

FIELD FieldData 4
upNodeId 1 23 int
0 2 4 5 7 10 12 14 12 
14 18 20 22 3 23 10 1 23 
6 22 20 18 8 
METADATA
INFORMATION 0

downNodeId 1 23 int
1 3 3 6 8 9 11 13 15 
16 17 19 21 1 12 14 6 10 
20 23 8 22 18 
METADATA
INFORMATION 0

RegionSize 1 23 int
331 56 42 34 45 842 6131 4353 41 
42 38 60 2 138 2967 6909 653 185 
96 6169 55 3353 202 
METADATA
INFORMATION 0

RegionSpan 1 23 double
16 9.0553855896 7.0710678101 4.2426404953 3.6055512428 39.924930573 40.804412842 49.648765564 8.2462110519 
8.0622577667 5 3.6055512428 2.2360680103 26.305892944 124.19742584 107 84.023803711 42 
97.324203491 126.28935242 98.843307495 35 100.49875641 
METADATA
INFORMATION 0

POINT_DATA 24
FIELD FieldData 2
Scalar 1 24 float
0.383842 0.769128 0.516582 0.648922 0.603319 0.203974 0.33967 0.180738 0.337915 
0 0.0500112 0.000172154 0.045057 0.000591159 0.0350279 0.00394654 0.00969204 0.0117334 
0.158406 0.0151984 0.190149 0.0349937 0.0589485 0.0500443 
METADATA
INFORMATION 0

ttkMaskScalarField 1 24 char
0 0 0 0 0 0 0 0 0 
0 0 0 0 0 0 0 0 0 
0 0 0 0 0 0 
METADATA
INFORMATION 0

