# vtk DataFile Version 4.2
vtk output
ASCII
DATASET UNSTRUCTURED_GRID
POINTS 28 float
66 138 0 66 154 0 63 124 0 
63 128 0 63 121 0 62 112 0 
63 104 0 64 54 0 67 51 0 
61 53 0 58 51 0 63 37 0 
34 0 0 117 148 0 112 0 0 
25 151 0 44 105 0 56 107 0 
77 151 0 81 153 0 55 129 0 
46 127 0 55 156 0 51 152 0 
74 127 0 82 125 0 67 114 0 
70 113 0 
METADATA
INFORMATION 2
NAME L2_NORM_RANGE LOCATION vtkDataArray
DATA 2 34 188.661 
NAME L2_NORM_FINITE_RANGE LOCATION vtkDataArray
DATA 2 34 188.661 

CELLS 27 81
2 0 1 
2 2 3 
2 2 4 
2 5 6 
2 7 8 
2 9 10 
2 11 12 
2 13 14 
2 15 16 
2 17 16 
2 18 19 
2 20 21 
2 22 23 
2 24 25 
2 26 27 
2 5 2 
2 16 21 
2 0 5 
2 21 12 
2 7 0 
2 12 14 
2 19 7 
2 14 25 
2 9 19 
2 25 27 
2 23 9 
2 27 23 

CELL_TYPES 27
3
3
3
3
3
3
3
3
3
3
3
3
3
3
3
3
3
3
3
3
3
3
3
3
3
3
3

CELL_DATA 27
SCALARS SegmentationId int
LOOKUP_TABLE default
26 25 24 23 22 21 0 1 2 
3 4 5 6 7 8 19 11 18 
13 20 9 12 10 17 15 14 16 

METADATA
INFORMATION 0

FIELD FieldData 4
upNodeId 1 27 int
0 2 4 5 7 9 12 14 16 
16 19 21 23 25 27 3 21 6 
12 1 14 8 25 19 27 10 23 

METADATA
INFORMATION 0

downNodeId 1 27 int
1 3 3 6 8 10 11 13 15 
17 18 20 22 24 26 6 16 1 
21 8 12 19 14 10 25 23 27 

METADATA
INFORMATION 0

RegionSize 1 27 int
297 14 3 44 34 45 1050 8852 3878 
63 59 52 36 35 8 40 32 105 
7127 707 174 80 2717 68 5908 233 1079 

METADATA
INFORMATION 0

RegionSpan 1 27 double
16 4 3 8.0622577667 4.2426404953 3.6055512428 47.010635376 148.08444214 49.769470215 
12.165525436 4.4721360207 9.2195444107 5.6568541527 8.2462110519 3.1622776985 12.041594505 22.09072113 26.305892944 
127.5656662 84.023803711 78 100.44898987 128.54960632 101.98039246 16.970561981 99.503768921 43.382022858 

METADATA
INFORMATION 0

POINT_DATA 28
FIELD FieldData 2
Scalar 1 28 float
0.411059 0.761835 0.574765 0.624635 0.605447 0.506651 0.598782 0.203882 0.340201 
0.182041 0.338347 0 0.0500311 0.000298304 0.0500483 0.000523695 0.0339284 0.00554712 
0.00743191 0.192284 0.00873651 0.0340055 0.0158053 0.155015 0.0168023 0.0516049 0.0650875 
0.090063 
METADATA
INFORMATION 0

ttkMaskScalarField 1 28 char
0 0 0 0 0 0 0 0 0 
0 0 0 0 0 0 0 0 0 
0 0 0 0 0 0 0 0 0 
0 
METADATA
INFORMATION 0

