# vtk DataFile Version 4.2
vtk output
ASCII
DATASET UNSTRUCTURED_GRID
POINTS 32 float
60 138 0 57 154 0 64 115 0 
61 126 0 62 108 0 63 109 0 
62 106 0 64 110 0 64 111 0 
62 100 0 62 91 0 61 53 0 
58 51 0 64 54 0 67 51 0 
63 37 0 91 0 0 3 148 0 
19 0 0 98 152 0 82 127 0 
73 127 0 70 110 0 80 110 0 
69 156 0 73 154 0 55 127 0 
48 126 0 47 151 0 43 149 0 
68 127 0 69 126 0 
METADATA
INFORMATION 2
NAME L2_NORM_RANGE LOCATION vtkDataArray
DATA 2 19 180.854 
NAME L2_NORM_FINITE_RANGE LOCATION vtkDataArray
DATA 2 19 180.854 

CELLS 31 93
2 0 1 
2 2 3 
2 4 5 
2 4 6 
2 7 8 
2 9 10 
2 11 12 
2 13 14 
2 15 16 
2 17 18 
2 19 20 
2 21 20 
2 22 23 
2 24 25 
2 26 27 
2 28 29 
2 30 31 
2 7 4 
2 20 23 
2 9 7 
2 23 16 
2 2 9 
2 16 18 
2 0 2 
2 18 31 
2 13 0 
2 31 27 
2 29 13 
2 27 25 
2 11 29 
2 25 11 

CELL_TYPES 31
3
3
3
3
3
3
3
3
3
3
3
3
3
3
3
3
3
3
3
3
3
3
3
3
3
3
3
3
3
3
3

CELL_DATA 31
SCALARS SegmentationId int
LOOKUP_TABLE default
30 29 28 27 26 25 24 23 0 
1 2 3 4 5 6 7 8 20 
11 19 12 18 9 21 10 22 16 
15 14 17 13 
METADATA
INFORMATION 0

FIELD FieldData 4
upNodeId 1 31 int
0 2 4 6 7 9 11 13 16 
18 20 20 23 25 27 29 31 5 
23 8 16 10 18 3 31 1 27 
14 25 29 12 
METADATA
INFORMATION 0

downNodeId 1 31 int
1 3 5 5 8 10 12 14 15 
17 19 21 22 24 26 28 30 8 
20 10 23 3 16 1 18 14 31 
29 27 12 25 
METADATA
INFORMATION 0

RegionSize 1 31 int
347 43 2 4 1 18 45 32 976 
7847 2933 54 52 41 31 60 2 2 
994 3 7860 13 191 138 7900 624 93 
88 2084 73 185 
METADATA
INFORMATION 0

RegionSpan 1 31 double
16.278820038 11.401754379 1.4142135382 2 1 9 3.6055512428 4.2426404953 46.400432587 
148.86235046 29.68164444 9 10 4.4721360207 7.0710678101 4.4721360207 1.4142135382 2.8284270763 
17.117242813 10.198039055 110.54862976 15.132745743 72 23.345235825 135.55810547 84.095184326 21 
97.293373108 37.536647797 97.672920227 101.71037292 
METADATA
INFORMATION 0

POINT_DATA 32
FIELD FieldData 2
Scalar 1 32 float
0.380128 0.765476 0.516321 0.688818 0.5682 0.602596 0.597475 0.551163 0.576442 
0.535588 0.57281 0.181442 0.340608 0.203615 0.338207 0 0.050032 7.40608e-05 
0.0500514 0.000352151 0.0277262 0.00324831 0.00399452 0.0319864 0.00768016 0.160569 0.0103271 
0.0717044 0.01401 0.192159 0.0426307 0.0703829 
METADATA
INFORMATION 0

ttkMaskScalarField 1 32 char
0 0 0 0 0 0 0 0 0 
0 0 0 0 0 0 0 0 0 
0 0 0 0 0 0 0 0 0 
0 0 0 0 0 
METADATA
INFORMATION 0

