# vtk DataFile Version 4.2
vtk output
ASCII
DATASET UNSTRUCTURED_GRID
POINTS 32 float
66 138 0 66 153 0 61 117 0 
64 126 0 62 108 0 63 107 0 
62 109 0 64 98 0 63 93 0 
64 54 0 67 51 0 61 53 0 
58 51 0 63 37 0 30 0 0 
120 148 0 105 0 0 25 151 0 
42 110 0 54 110 0 55 129 0 
47 127 0 73 127 0 81 126 0 
58 109 0 57 110 0 55 155 0 
51 153 0 78 151 0 81 151 0 
70 126 0 71 127 0 
METADATA
INFORMATION 2
NAME L2_NORM_RANGE LOCATION vtkDataArray
DATA 2 30 190.536 
NAME L2_NORM_FINITE_RANGE LOCATION vtkDataArray
DATA 2 30 190.536 

CELLS 31 93
2 0 1 
2 2 3 
2 4 5 
2 4 6 
2 7 8 
2 9 10 
2 11 12 
2 13 14 
2 15 16 
2 17 18 
2 19 18 
2 20 21 
2 22 23 
2 24 25 
2 26 27 
2 28 29 
2 30 31 
2 7 4 
2 18 21 
2 2 7 
2 21 14 
2 0 2 
2 14 16 
2 9 0 
2 16 25 
2 29 9 
2 25 23 
2 11 29 
2 23 31 
2 27 11 
2 31 27 

CELL_TYPES 31
3
3
3
3
3
3
3
3
3
3
3
3
3
3
3
3
3
3
3
3
3
3
3
3
3
3
3
3
3
3
3

CELL_DATA 31
SCALARS SegmentationId int
LOOKUP_TABLE default
30 29 28 27 26 25 24 0 1 
2 3 4 5 6 7 8 9 21 
12 20 13 22 10 23 11 17 15 
19 14 16 18 
METADATA
INFORMATION 0

FIELD FieldData 4
upNodeId 1 31 int
0 2 4 6 7 9 11 14 16 
18 18 21 23 25 27 29 31 5 
21 8 14 3 16 1 25 10 23 
29 31 12 27 
METADATA
INFORMATION 0

downNodeId 1 31 int
1 3 5 5 8 10 12 13 15 
17 19 20 22 24 26 28 30 8 
18 3 21 1 14 10 16 29 25 
12 23 27 31 
METADATA
INFORMATION 0

RegionSize 1 31 int
298 58 3 1 12 34 45 1066 8702 
3365 72 40 37 1 34 59 0 9 
981 35 6749 79 175 708 5574 79 756 
58 947 256 2503 
METADATA
INFORMATION 0

RegionSpan 1 31 double
15 9.4868326187 1.4142135382 1 5.0990195274 4.2426404953 3.6055512428 49.578220367 148.75819397 
44.384681702 12 8.2462110519 8.0622577667 1.4142135382 4.4721360207 3 1.4142135382 10.198039055 
17.72004509 19.235383987 128.13273621 21.587032318 75 84.023803711 120.0166626 98.478424072 28.844409943 
100.01999664 10.049875259 100.49875641 32.802440643 
METADATA
INFORMATION 0

POINT_DATA 32
FIELD FieldData 2
Scalar 1 32 float
0.411536 0.759507 0.479753 0.685873 0.568995 0.605667 0.595858 0.545444 0.572953 
0.203959 0.34046 0.181936 0.338111 0 0.0500363 2.34094e-05 0.0500527 0.00079593 
0.0312686 0.00204958 0.00798424 0.0351593 0.0116124 0.0590167 0.0161552 0.0559152 0.0279786 
0.154381 0.0292725 0.190945 0.032417 0.0654696 
METADATA
INFORMATION 0

ttkMaskScalarField 1 32 char
0 0 0 0 0 0 0 0 0 
0 0 0 0 0 0 0 0 0 
0 0 0 0 0 0 0 0 0 
0 0 0 0 0 
METADATA
INFORMATION 0

