# vtk DataFile Version 4.2
vtk output
ASCII
DATASET UNSTRUCTURED_GRID
POINTS 24 float
65 138 0 67 153 0 61 113 0 
63 126 0 63 105 0 64 54 0 
67 51 0 61 53 0 58 51 0 
63 37 0 44 0 0 122 147 0 
113 0 0 27 152 0 47 107 0 
56 156 0 52 154 0 56 108 0 
78 151 0 82 150 0 71 129 0 
77 126 0 57 126 0 55 126 0 

METADATA
INFORMATION 2
NAME L2_NORM_RANGE LOCATION vtkDataArray
DATA 2 44 191.031 
NAME L2_NORM_FINITE_RANGE LOCATION vtkDataArray
DATA 2 44 191.031 

CELLS 23 69
2 0 1 
2 2 3 
2 2 4 
2 5 6 
2 7 8 
2 9 10 
2 11 12 
2 13 14 
2 15 16 
2 17 14 
2 18 19 
2 20 21 
2 22 23 
2 0 2 
2 14 10 
2 5 0 
2 10 12 
2 19 5 
2 12 21 
2 7 19 
2 21 23 
2 16 7 
2 23 16 

CELL_TYPES 23
3
3
3
3
3
3
3
3
3
3
3
3
3
3
3
3
3
3
3
3
3
3
3

CELL_DATA 23
SCALARS SegmentationId int
LOOKUP_TABLE default
22 21 20 19 18 0 1 2 3 
4 5 6 7 16 10 17 8 12 
9 15 13 11 14 
METADATA
INFORMATION 0

FIELD FieldData 4
upNodeId 1 23 int
0 2 4 5 7 10 12 14 16 
14 19 21 23 3 10 1 12 6 
21 19 23 8 16 
METADATA
INFORMATION 0

downNodeId 1 23 int
1 3 3 6 8 9 11 13 15 
17 18 20 22 1 14 6 10 19 
12 8 21 16 23 
METADATA
INFORMATION 0

RegionSize 1 23 int
342 40 33 34 45 865 8378 4269 38 
46 62 31 3 168 7090 622 295 72 
8092 87 549 194 1389 
METADATA
INFORMATION 0

RegionSpan 1 23 double
15.132745743 13.152946472 8.2462110519 4.2426404953 3.6055512428 41.593269348 147.2752533 49.244289398 4.4721360207 
9.0553855896 4.123105526 6.7082037926 2 25.317977905 107.04204559 84.005950928 69 97.672920227 
131.04197693 99.247169495 22 101.40019989 28.160255432 
METADATA
INFORMATION 0

POINT_DATA 24
FIELD FieldData 2
Scalar 1 24 float
0.380295 0.764293 0.530197 0.717179 0.608206 0.203944 0.340523 0.181836 0.338216 
0 0.0500049 0.00010013 0.0500531 0.000280332 0.0343379 0.00625023 0.158885 0.00807152 
0.0110102 0.194105 0.0149882 0.0735842 0.034912 0.0842043 
METADATA
INFORMATION 0

ttkMaskScalarField 1 24 char
0 0 0 0 0 0 0 0 0 
0 0 0 0 0 0 0 0 0 
0 0 0 0 0 0 
METADATA
INFORMATION 0

