# vtk DataFile Version 4.2
vtk output
ASCII
DATASET UNSTRUCTURED_GRID
POINTS 28 float
65 135 0 67 153 0 61 113 0 
63 109 0 60 118 0 63 124 0 
61 114 0 63 100 0 63 94 0 
64 54 0 67 51 0 61 53 0 
58 51 0 63 37 0 44 0 0 
121 147 0 110 0 0 27 151 0 
73 125 0 71 125 0 78 150 0 
82 150 0 56 156 0 52 153 0 
56 126 0 55 125 0 70 124 0 
80 124 0 
METADATA
INFORMATION 2
NAME L2_NORM_RANGE LOCATION vtkDataArray
DATA 2 44 190.394 
NAME L2_NORM_FINITE_RANGE LOCATION vtkDataArray
DATA 2 44 190.394 

CELLS 27 81
2 0 1 
2 2 3 
2 4 5 
2 2 6 
2 7 8 
2 9 10 
2 11 12 
2 13 14 
2 15 16 
2 17 14 
2 18 19 
2 20 21 
2 22 23 
2 24 25 
2 26 19 
2 7 2 
2 14 16 
2 19 27 
2 4 7 
2 16 27 
2 0 4 
2 27 25 
2 9 0 
2 25 23 
2 21 9 
2 23 11 
2 11 21 

CELL_TYPES 27
3
3
3
3
3
3
3
3
3
3
3
3
3
3
3
3
3
3
3
3
3
3
3
3
3
3
3

CELL_DATA 27
SCALARS SegmentationId int
LOOKUP_TABLE default
26 25 24 23 22 21 20 0 1 
2 3 4 5 6 7 18 8 10 
16 9 17 14 19 13 11 12 15 

METADATA
INFORMATION 0

FIELD FieldData 4
upNodeId 1 27 int
0 2 4 6 7 9 11 14 16 
14 19 21 23 25 19 3 16 27 
8 27 5 25 1 23 10 12 21 

METADATA
INFORMATION 0

downNodeId 1 27 int
1 3 5 3 8 10 12 13 15 
17 18 20 22 24 26 8 14 19 
5 16 1 27 10 25 21 23 12 

METADATA
INFORMATION 0

RegionSize 1 27 int
424 10 27 0 12 34 45 928 8473 
11325 29 63 37 1 1 5 184 0 
26 6436 216 1603 552 1952 79 214 64 

METADATA
INFORMATION 0

RegionSpan 1 27 double
18.110771179 4.4721360207 6.7082037926 1 6 4.2426404953 3.6055512428 41.593269348 147.41099548 
151.95393372 2 4 5 1.4142135382 1.4142135382 13.152946472 66 9.0553855896 
18.248287201 127.57743073 17.72004509 25.019992828 81.00617218 28.160255432 97.672920227 100.40418243 99.247169495 

METADATA
INFORMATION 0

POINT_DATA 28
FIELD FieldData 2
Scalar 1 28 float
0.327258 0.756442 0.574476 0.622845 0.509883 0.622078 0.600327 0.553177 0.578213 
0.203746 0.340075 0.182486 0.338552 0 0.0500295 7.24983e-05 0.0500481 0.000331545 
0.00648662 0.0583877 0.012389 0.193134 0.0126401 0.158218 0.0207243 0.0718238 0.0320378 
0.058402 
METADATA
INFORMATION 0

ttkMaskScalarField 1 28 char
0 0 0 0 0 0 0 0 0 
0 0 0 0 0 0 0 0 0 
0 0 0 0 0 0 0 0 0 
0 
METADATA
INFORMATION 0

