# vtk DataFile Version 4.2
vtk output
ASCII
DATASET UNSTRUCTURED_GRID
POINTS 28 float
67 139 0 66 154 0 64 126 0 
64 128 0 63 125 0 62 114 0 
63 107 0 64 54 0 67 51 0 
61 53 0 58 51 0 63 37 0 
46 0 0 120 148 0 93 0 0 
26 151 0 46 109 0 75 127 0 
82 126 0 56 130 0 47 127 0 
56 110 0 71 126 0 72 126 0 
77 151 0 81 151 0 55 156 0 
52 153 0 
METADATA
INFORMATION 2
NAME L2_NORM_RANGE LOCATION vtkDataArray
DATA 2 46 190.536 
NAME L2_NORM_FINITE_RANGE LOCATION vtkDataArray
DATA 2 46 190.536 

CELLS 27 81
2 0 1 
2 2 3 
2 2 4 
2 5 6 
2 7 8 
2 9 10 
2 11 12 
2 13 14 
2 15 16 
2 17 18 
2 19 20 
2 21 16 
2 22 23 
2 24 25 
2 26 27 
2 5 2 
2 16 20 
2 0 5 
2 20 12 
2 7 0 
2 12 14 
2 25 7 
2 14 18 
2 9 25 
2 18 23 
2 27 9 
2 23 27 

CELL_TYPES 27
3
3
3
3
3
3
3
3
3
3
3
3
3
3
3
3
3
3
3
3
3
3
3
3
3
3
3

CELL_DATA 27
SCALARS SegmentationId int
LOOKUP_TABLE default
26 25 24 23 22 21 0 1 2 
3 4 5 6 7 8 19 11 18 
13 20 9 15 10 17 12 16 14 

METADATA
INFORMATION 0

FIELD FieldData 4
upNodeId 1 27 int
0 2 4 5 7 9 12 14 16 
18 20 16 23 25 27 3 20 6 
12 1 14 8 18 25 23 10 27 

METADATA
INFORMATION 0

downNodeId 1 27 int
1 3 3 6 8 10 11 13 15 
17 19 21 22 24 26 6 16 1 
20 8 12 25 14 10 18 27 23 

METADATA
INFORMATION 0

RegionSize 1 27 int
283 5 3 37 34 45 912 8744 3871 
39 50 56 0 60 34 36 500 110 
6954 722 146 97 3063 47 4646 265 1981 

METADATA
INFORMATION 0

RegionSpan 1 27 double
15.033296585 2 1.4142135382 7.0710678101 4.2426404953 3.6055512428 40.718547821 150.44267273 46.518814087 
7.0710678101 9.4868326187 10.049875259 1 4 4.2426404953 12.165525436 18.027755737 25.495098114 
127.00393677 85.05292511 47 98.478424072 126.47924805 100.01999664 10 100.40418243 33.600593567 

METADATA
INFORMATION 0

POINT_DATA 28
FIELD FieldData 2
Scalar 1 28 float
0.417345 0.767455 0.645534 0.677058 0.674142 0.536817 0.607702 0.203597 0.340191 
0.181218 0.337922 0 0.0500243 6.49384e-05 0.0500583 0.000478327 0.0333401 0.00380444 
0.051921 0.00499668 0.0350408 0.00894646 0.025149 0.0705044 0.0297897 0.189934 0.0306157 
0.151999 
METADATA
INFORMATION 0

ttkMaskScalarField 1 28 char
0 0 0 0 0 0 0 0 0 
0 0 0 0 0 0 0 0 0 
0 0 0 0 0 0 0 0 0 
0 
METADATA
INFORMATION 0

