# vtk DataFile Version 4.2
vtk output
ASCII
DATASET UNSTRUCTURED_GRID
POINTS 30 float
60 137 0 57 154 0 62 116 0 
62 125 0 62 106 0 62 104 0 
63 107 0 61 101 0 62 94 0 
63 115 0 61 53 0 58 51 0 
64 54 0 67 51 0 63 37 0 
77 0 0 3 148 0 47 0 0 
98 152 0 79 106 0 69 107 0 
47 151 0 44 150 0 69 156 0 
73 154 0 53 127 0 47 125 0 
68 125 0 70 125 0 63 113 0 

METADATA
INFORMATION 2
NAME L2_NORM_RANGE LOCATION vtkDataArray
DATA 2 47 180.854 
NAME L2_NORM_FINITE_RANGE LOCATION vtkDataArray
DATA 2 47 180.854 

CELLS 29 87
2 0 1 
2 2 3 
2 4 5 
2 4 6 
2 7 8 
2 2 9 
2 10 11 
2 12 13 
2 14 15 
2 16 17 
2 18 19 
2 20 19 
2 21 22 
2 23 24 
2 25 26 
2 27 28 
2 7 4 
2 29 2 
2 19 15 
2 29 7 
2 15 17 
2 0 29 
2 17 26 
2 12 0 
2 26 28 
2 22 12 
2 28 24 
2 10 22 
2 24 10 

CELL_TYPES 29
3
3
3
3
3
3
3
3
3
3
3
3
3
3
3
3
3
3
3
3
3
3
3
3
3
3
3
3
3

CELL_DATA 29
SCALARS SegmentationId int
LOOKUP_TABLE default
28 27 26 25 24 23 22 21 0 
1 2 3 4 5 6 7 18 19 
10 17 8 16 9 20 13 11 14 
15 12 
METADATA
INFORMATION 0

FIELD FieldData 4
upNodeId 1 29 int
0 2 4 6 7 9 10 12 15 
17 19 19 22 24 26 28 5 3 
15 8 17 29 26 1 28 13 24 
22 11 
METADATA
INFORMATION 0

downNodeId 1 29 int
1 3 5 5 8 3 11 13 14 
16 18 20 21 23 25 27 8 29 
19 29 15 1 17 13 26 22 28 
11 24 
METADATA
INFORMATION 0

RegionSize 1 29 int
384 32 3 2 19 2 45 32 779 
8153 4346 50 60 41 34 4 7 2 
7585 5 173 177 7211 572 1537 129 1146 
42 166 
METADATA
INFORMATION 0

RegionSpan 1 29 double
17.262676239 9 2 1.4142135382 7.0710678101 1.4142135382 3.6055512428 4.2426404953 39.560081482 
154.40206909 49.769470215 10.049875259 3.1622776985 4.4721360207 6.324555397 2 5.0990195274 3.1622776985 
106.01886749 12.165525436 30 24.1867733 125 83.096328735 23 98.061203003 29.154760361 
98.478424072 101.71037292 
METADATA
INFORMATION 0

POINT_DATA 30
FIELD FieldData 2
Scalar 1 30 float
0.352797 0.764889 0.538548 0.710834 0.550611 0.590676 0.588676 0.536684 0.574417 
0.562618 0.181256 0.340262 0.203754 0.338155 0 0.0500111 0.000118229 0.050068 
0.000479317 0.0335346 0.00422377 0.00761103 0.187896 0.0104604 0.163548 0.0146009 0.0649172 
0.0460049 0.0920328 0.528301 
METADATA
INFORMATION 0

ttkMaskScalarField 1 30 char
0 0 0 0 0 0 0 0 0 
0 0 0 0 0 0 0 0 0 
0 0 0 0 0 0 0 0 0 
0 0 0 
METADATA
INFORMATION 0

