# vtk DataFile Version 4.2
vtk output
ASCII
DATASET UNSTRUCTURED_GRID
POINTS 26 float
66 139 0 66 154 0 62 112 0 
63 128 0 63 104 0 64 54 0 
67 51 0 61 53 0 58 51 0 
63 37 0 38 0 0 120 148 0 
104 0 0 25 151 0 43 105 0 
55 130 0 46 129 0 55 107 0 
73 127 0 79 126 0 55 156 0 
51 153 0 77 151 0 82 152 0 
67 114 0 72 113 0 
METADATA
INFORMATION 2
NAME L2_NORM_RANGE LOCATION vtkDataArray
DATA 2 38 190.536 
NAME L2_NORM_FINITE_RANGE LOCATION vtkDataArray
DATA 2 38 190.536 

CELLS 25 75
2 0 1 
2 2 3 
2 2 4 
2 5 6 
2 7 8 
2 9 10 
2 11 12 
2 13 14 
2 15 16 
2 17 14 
2 18 19 
2 20 21 
2 22 23 
2 24 25 
2 0 2 
2 14 16 
2 5 0 
2 16 10 
2 23 5 
2 10 12 
2 7 23 
2 12 19 
2 21 7 
2 19 25 
2 25 21 

CELL_TYPES 25
3
3
3
3
3
3
3
3
3
3
3
3
3
3
3
3
3
3
3
3
3
3
3
3
3

CELL_DATA 25
SCALARS SegmentationId int
LOOKUP_TABLE default
24 23 22 21 20 0 1 2 3 
4 5 6 7 8 18 11 19 12 
15 9 17 10 14 13 16 
METADATA
INFORMATION 0

FIELD FieldData 4
upNodeId 1 25 int
0 2 4 5 7 10 12 14 16 
14 19 21 23 25 3 16 1 10 
6 12 23 19 8 25 21 
METADATA
INFORMATION 0

downNodeId 1 25 int
1 3 3 6 8 9 11 13 15 
17 18 20 22 24 1 14 6 16 
23 10 8 12 21 19 25 
METADATA
INFORMATION 0

RegionSize 1 25 int
295 57 51 34 45 928 8775 3726 49 
69 35 40 59 14 99 158 702 7280 
98 230 55 6798 217 1064 1864 
METADATA
INFORMATION 0

RegionSpan 1 25 double
15 16.031219482 8.0622577667 4.2426404953 3.6055512428 44.65422821 148.86235046 49.396354675 9.0553855896 
12.165525436 6.0827627182 5 5.0990195274 5.0990195274 27.294687271 24.1867733 85.023529053 129.24781799 
99.639350891 66 101.20276642 128.45622253 100.49875641 14.76482296 45.177429199 
METADATA
INFORMATION 0

POINT_DATA 26
FIELD FieldData 2
Scalar 1 26 float
0.415996 0.769821 0.499876 0.643436 0.599477 0.203507 0.33993 0.180836 0.337806 
0 0.0500155 0.000237192 0.050059 0.00071098 0.0330247 0.0038377 0.0335203 0.00464215 
0.0160751 0.0620347 0.0185596 0.15547 0.021467 0.189841 0.0311593 0.0728285 
METADATA
INFORMATION 0

ttkMaskScalarField 1 26 char
0 0 0 0 0 0 0 0 0 
0 0 0 0 0 0 0 0 0 
0 0 0 0 0 0 0 0 
METADATA
INFORMATION 0

