# vtk DataFile Version 4.2
vtk output
ASCII
DATASET UNSTRUCTURED_GRID
POINTS 26 float
60 136 0 58 152 0 65 117 0 
61 125 0 64 112 0 62 109 0 
64 113 0 61 53 0 58 51 0 
64 54 0 67 51 0 63 37 0 
83 0 0 4 146 0 48 0 0 
99 150 0 52 126 0 45 125 0 
70 155 0 73 151 0 47 149 0 
43 149 0 55 125 0 54 126 0 
68 113 0 69 113 0 
METADATA
INFORMATION 2
NAME L2_NORM_RANGE LOCATION vtkDataArray
DATA 2 48 179.725 
NAME L2_NORM_FINITE_RANGE LOCATION vtkDataArray
DATA 2 48 179.725 

CELLS 25 75
2 0 1 
2 2 3 
2 4 5 
2 4 6 
2 7 8 
2 9 10 
2 11 12 
2 13 14 
2 15 12 
2 16 17 
2 18 19 
2 20 21 
2 22 23 
2 24 25 
2 2 4 
2 12 14 
2 0 2 
2 14 25 
2 9 0 
2 25 17 
2 21 9 
2 17 23 
2 7 21 
2 23 19 
2 19 7 

CELL_TYPES 25
3
3
3
3
3
3
3
3
3
3
3
3
3
3
3
3
3
3
3
3
3
3
3
3
3

CELL_DATA 25
SCALARS SegmentationId int
LOOKUP_TABLE default
24 23 22 21 20 19 0 1 2 
3 4 5 6 7 16 8 17 9 
18 14 12 10 15 13 11 
METADATA
INFORMATION 0

FIELD FieldData 4
upNodeId 1 25 int
0 2 4 6 7 9 12 14 12 
17 19 21 23 25 5 14 3 25 
1 17 10 23 21 19 8 
METADATA
INFORMATION 0

downNodeId 1 25 int
1 3 5 5 8 10 11 13 15 
16 18 20 22 24 3 12 1 14 
10 25 21 17 8 23 19 
METADATA
INFORMATION 0

RegionSize 1 25 int
349 44 23 0 45 32 890 8280 11771 
30 34 61 0 0 37 149 135 6351 
661 208 88 163 72 3117 202 
METADATA
INFORMATION 0

RegionSpan 1 25 double
16.124515533 8.9442720413 3.6055512428 1 3.6055512428 4.2426404953 42.059482574 152.48606873 150.85092163 
7.0710678101 5 4 1.4142135382 1 5.0990195274 35 19.646883011 114.93476105 
82.097503662 26.83281517 97.293373108 9.0553855896 97.672920227 31.400636673 98.731964111 
METADATA
INFORMATION 0

POINT_DATA 26
FIELD FieldData 2
Scalar 1 26 float
0.372442 0.739677 0.484296 0.644854 0.561307 0.612361 0.591052 0.180772 0.340029 
0.204152 0.33852 0 0.0500091 0.000200811 0.0500644 0.000573334 0.00962984 0.0598909 
0.0268781 0.157504 0.0276224 0.192539 0.0290996 0.0607889 0.0327311 0.0587793 
METADATA
INFORMATION 0

ttkMaskScalarField 1 26 char
0 0 0 0 0 0 0 0 0 
0 0 0 0 0 0 0 0 0 
0 0 0 0 0 0 0 0 
METADATA
INFORMATION 0

