# vtk DataFile Version 4.2
vtk output
ASCII
DATASET UNSTRUCTURED_GRID
POINTS 34 float
66 139 0 67 154 0 61 114 0 
64 128 0 61 109 0 63 107 0 
63 105 0 64 101 0 61 110 0 
64 54 0 67 51 0 61 53 0 
58 51 0 63 37 0 47 0 0 
123 150 0 86 0 0 27 153 0 
41 110 0 53 109 0 54 129 0 
45 127 0 72 129 0 78 126 0 
78 152 0 82 153 0 56 156 0 
52 154 0 58 108 0 57 109 0 
58 127 0 56 127 0 66 116 0 
70 116 0 
METADATA
INFORMATION 2
NAME L2_NORM_RANGE LOCATION vtkDataArray
DATA 2 47 193.982 
NAME L2_NORM_FINITE_RANGE LOCATION vtkDataArray
DATA 2 47 193.982 

CELLS 33 99
2 0 1 
2 2 3 
2 4 5 
2 6 7 
2 4 8 
2 9 10 
2 11 12 
2 13 14 
2 15 16 
2 17 18 
2 19 18 
2 20 21 
2 22 23 
2 24 25 
2 26 27 
2 28 29 
2 30 31 
2 32 33 
2 6 4 
2 18 21 
2 2 6 
2 21 14 
2 0 2 
2 14 16 
2 9 0 
2 16 31 
2 25 9 
2 31 29 
2 11 25 
2 29 23 
2 27 11 
2 23 33 
2 33 27 

CELL_TYPES 33
3
3
3
3
3
3
3
3
3
3
3
3
3
3
3
3
3
3
3
3
3
3
3
3
3
3
3
3
3
3
3
3
3

CELL_DATA 33
SCALARS SegmentationId int
LOOKUP_TABLE default
32 31 30 29 28 27 26 0 1 
2 3 4 5 6 7 8 9 10 
23 13 22 14 24 11 25 12 16 
19 21 18 17 15 20 
METADATA
INFORMATION 0

FIELD FieldData 4
upNodeId 1 33 int
0 2 4 6 8 9 11 14 16 
18 18 21 23 25 27 29 31 33 
5 21 7 14 3 16 1 31 10 
29 25 23 12 33 27 
METADATA
INFORMATION 0

downNodeId 1 33 int
1 3 5 7 5 10 12 13 15 
17 19 20 22 24 26 28 30 32 
7 18 3 21 1 14 10 16 25 
31 12 29 27 23 33 
METADATA
INFORMATION 0

RegionSize 1 33 int
320 65 4 23 1 34 45 826 8413 
3181 80 48 35 62 40 0 4 8 
0 279 39 7940 85 161 664 5179 72 
1998 114 488 182 1387 957 
METADATA
INFORMATION 0

RegionSpan 1 33 double
15.033296585 14.317821503 2.8284270763 4.123105526 1 4.2426404953 3.6055512428 40.311286926 154.49595642 
45.221675873 12.041594505 9.2195444107 6.7082037926 4.123105526 4.4721360207 1.4142135382 2 4 
4.4721360207 17.464248657 9.2195444107 127.01574707 25.495098114 39 85.023529053 130.49520874 100.62306213 
18.027755737 102.18121338 27.018512726 101.40019989 12.806248665 42.047592163 
METADATA
INFORMATION 0

POINT_DATA 34
FIELD FieldData 2
Scalar 1 34 float
0.391873 0.778364 0.452207 0.701289 0.542418 0.584691 0.540759 0.578057 0.569364 
0.205092 0.33823 0.178282 0.335647 0 0.0500155 0.000103947 0.0500503 0.000640013 
0.0294738 0.00104705 0.00501723 0.0305414 0.00722682 0.0678604 0.0177519 0.194523 0.0233375 
0.157788 0.0251963 0.0633505 0.0261998 0.0544942 0.068417 0.0960134 
METADATA
INFORMATION 0

ttkMaskScalarField 1 34 char
0 0 0 0 0 0 0 0 0 
0 0 0 0 0 0 0 0 0 
0 0 0 0 0 0 0 0 0 
0 0 0 0 0 0 0 
METADATA
INFORMATION 0

