# vtk DataFile Version 4.2
vtk output
ASCII
DATASET UNSTRUCTURED_GRID
POINTS 58 float
0.46875 1.26562 0.703125 0.484375 1.23438 0.59375 0.484375 1.34375 0.78125 
0.484375 1.20312 0.78125 0.46875 1.26562 0.875 0.453125 1.25 0.828125 
0.5 1.25 0.546875 0.484375 1.15625 0.578125 0.46875 1.07812 0.796875 
0.515625 1.32812 0.734375 0.53125 1.25 0.75 0.46875 1.125 0.5 
0.5 1.15625 0.53125 0.484375 1.10938 0.59375 0.46875 1.03125 0.875 
0.46875 0.859375 0.796875 0.46875 1.0625 0.03125 0.46875 1.01562 0.078125 
0.484375 0.921875 0.78125 0.484375 0.953125 0.78125 0.484375 1.03125 0.90625 
0.484375 1.0625 0.890625 0.453125 1.04688 0.828125 0.453125 1.0625 0.828125 
0.484375 1.0625 0.953125 0.484375 1.09375 0.953125 0.484375 1 0.09375 
0.46875 0.890625 0 0.46875 0.9375 0 0.421875 0.53125 0.75 
0.46875 0.578125 0.734375 0.53125 0.53125 0.75 0.53125 0.53125 0.21875 
0.359375 1.21875 0.890625 0.359375 1.25 0.890625 0.421875 0.53125 0 
0.421875 0.53125 0.234375 0.53125 0.53125 0 0.46875 0.453125 0 
0.265625 0.0625 0.078125 0.75 1.15625 0.796875 0.34375 0.90625 0.984375 
0.609375 1.23438 0.859375 0.609375 1.1875 0.859375 0.59375 1.17188 0.875 
0.609375 1.1875 0.890625 0.421875 0.890625 0.96875 0.328125 1.0625 0.78125 
0.328125 1.07812 0.78125 0.5625 0.921875 0.25 0.59375 0.9375 0.1875 
0.390625 0.9375 0.265625 0.359375 0.9375 0.265625 0.53125 1.26562 0.96875 
0.5 1.26562 0.984375 0.484375 0.578125 0.71875 0.484375 1.03125 0.765625 
0.484375 0.9375 0.265625 
METADATA
INFORMATION 2
NAME L2_NORM_RANGE LOCATION vtkDataArray
DATA 2 0.283842 1.68003 
NAME L2_NORM_FINITE_RANGE LOCATION vtkDataArray
DATA 2 0.283842 1.68003 

CELL_TYPES 0

POINT_DATA 58
SCALARS CriticalType int
LOOKUP_TABLE default
3 2 3 2 3 2 3 2 3 
3 2 3 2 3 3 2 3 2 
3 2 3 2 3 2 3 2 3 
3 2 3 2 3 2 3 2 3 
2 3 0 1 0 1 0 1 0 
1 0 0 1 0 1 0 1 0 
1 2 2 2 
METADATA
INFORMATION 0

FIELD FieldData 5
NodeId 1 58 int
0 1 2 3 4 5 6 7 8 
9 10 11 12 13 14 15 16 17 
18 19 20 21 22 23 24 25 26 
27 28 29 30 31 32 33 34 35 
36 37 38 39 40 41 42 43 44 
45 46 47 48 49 50 51 52 53 
54 55 56 57 
METADATA
INFORMATION 0

Scalar 1 58 float
0.688526 0.550708 0.645478 0.560583 0.618792 0.535235 0.600913 0.552898 0.599924 
0.590571 0.549611 0.581535 0.511556 0.574571 0.561006 0.512518 0.557218 0.452856 
0.545056 0.522189 0.535448 0.50287 0.516482 0.490033 0.484374 0.460352 0.479323 
0.451977 0.411434 0.272786 0.189291 0.27213 0.190221 0.267322 0.243915 0.235038 
0.18511 0.233501 0 0.0498981 0.000238902 0.0373265 0.00919989 0.0407765 0.00974892 
0.0396593 0.0122856 0.0180611 0.04051 0.0307843 0.0738335 0.03306 0.0674056 0.0338087 
0.0573464 0.189242 0.54306 0.394924 
METADATA
INFORMATION 0

VertexId 1 58 int
373854 316383 415135 414559 463966 439325 291872 307871 422238 
390497 398370 266782 283296 315871 463006 421342 20766 45150 
413407 413535 479391 471327 438493 438557 504095 504223 53279 
3678 3870 395419 387422 395426 116898 471959 472087 2203 
125083 2210 1886 41233 422576 519830 455655 455463 463590 
471847 511579 413973 414037 134884 102182 143129 143127 513122 
521312 379231 405663 143135 
METADATA
INFORMATION 0

RegionSize 1 58 int
269 42 70 30 81 168 27 3 17 
13 24 31 149 6 32 21 47 112 
6 127 6 251 0 563 2 1727 5 
14 75 558 4 459 16 9 3432 97 
23126 59 6721 127228 121316 19805 8 175187 4 
9377 38 0 2759 14 23126 6 5036 1 
16933 433 92 7594 
METADATA
INFORMATION 0

RegionSpan 1 58 int
0 0 0 0 0 0 0 0 0 
0 0 0 0 0 0 0 0 0 
0 0 0 0 0 0 0 0 0 
0 0 0 0 0 0 0 0 0 
0 0 0 1 0 0 0 1 0 
0 0 0 0 0 0 0 0 0 
0 0 0 0 
METADATA
INFORMATION 0

