# vtk DataFile Version 4.2
vtk output
ASCII
DATASET UNSTRUCTURED_GRID
POINTS 87 float
0.4375 1.3125 0.703125 0.5 1.32812 0.734375 0.46875 1.29688 0.78125 
0.484375 1.3125 0.765625 0.484375 1.32812 0.875 0.453125 1.21875 0.828125 
0.515625 1.42188 0.765625 0.46875 1.25 0.5625 0.453125 1.34375 0.59375 
0.453125 1.1875 0.8125 0.453125 1.25 0.796875 0.453125 1.125 0.765625 
0.453125 1.14062 0.78125 0.46875 1 0.75 0.46875 1.04688 0.765625 
0.4375 1.375 0.59375 0.453125 1.17188 0.96875 0.46875 1.01562 0.953125 
0.5 1.125 0.65625 0.5 1.20312 0.671875 0.46875 0.953125 0.796875 
0.46875 0.984375 0.765625 0.484375 1.04688 0.640625 0.5 1.07812 0.640625 
0.46875 1.09375 0.4375 0.515625 1.125 0.453125 0.46875 0.96875 0.6875 
0.46875 0.9375 0.734375 0.453125 1.15625 0 0.484375 1.04688 0.0625 
0.46875 1.01562 0.53125 0.484375 1.04688 0.53125 0.5 1.09375 0.890625 
0.484375 1.09375 0.890625 0.484375 1.01562 0.375 0.46875 1.03125 0.40625 
0.46875 0.953125 0.96875 0.5 1.03125 0.09375 0.46875 1.01562 0.109375 
0.484375 1.01562 0.109375 0.46875 0.9375 0.484375 0.484375 0.921875 0.5 
0.484375 1.01562 0 0.46875 1.03125 0 0.484375 0.96875 0.21875 
0.484375 0.96875 0.203125 0.484375 0.953125 0.4375 0.46875 0.96875 0.4375 
0.484375 0.96875 0.171875 0.46875 1 0.15625 0.484375 0.921875 0.046875 
0.484375 0.984375 0.03125 0.53125 0.53125 0.75 0.484375 0.578125 0.75 
0.421875 0.53125 0.71875 0.46875 0.578125 0.765625 0.578125 1.1875 0.59375 
0.59375 1.23438 0.578125 0.421875 0.53125 0.015625 0.421875 0.53125 0.1875 
0.53125 0.53125 0 0.53125 0.53125 0.21875 0.515625 1.35938 0 
0.375 1.95312 0.203125 0.46875 0.453125 0 0.34375 0.078125 0.140625 
0.203125 1.20312 0.828125 0.515625 1.35938 0.5 0.71875 1.1875 0.859375 
0.640625 1.10938 0.703125 0.640625 1.10938 0.71875 0.390625 0.953125 0.21875 
0.359375 0.96875 0.234375 0.5625 0.953125 0.25 0.59375 0.96875 0.265625 
0.359375 1.15625 0.921875 0.34375 1.17188 0.890625 0.515625 1.17188 0.984375 
0.515625 1.17188 0.96875 0.515625 1.1875 0.96875 0.515625 1.14062 0 
0.515625 1.20312 0 0.390625 1.26562 0.78125 0.375 1.28125 0.78125 
0.46875 1.39062 0.640625 0.484375 0.8125 0.9375 0.484375 0.96875 0.234375 

METADATA
INFORMATION 2
NAME L2_NORM_RANGE LOCATION vtkDataArray
DATA 2 0.37953 1.99915 
NAME L2_NORM_FINITE_RANGE LOCATION vtkDataArray
DATA 2 0.37953 1.99915 

CELL_TYPES 0

POINT_DATA 87
SCALARS CriticalType int
LOOKUP_TABLE default
3 2 3 2 3 2 3 3 2 
3 2 3 2 3 2 3 3 2 
3 2 3 2 3 2 3 2 3 
2 3 2 3 2 3 2 3 2 
3 3 3 2 3 2 3 2 3 
2 3 2 3 2 3 2 3 2 
3 2 3 2 3 2 3 2 3 
2 0 1 0 1 0 0 1 0 
1 0 1 0 1 0 4 0 0 
1 0 1 2 2 2 
METADATA
INFORMATION 0

FIELD FieldData 5
NodeId 1 87 int
0 1 2 3 4 5 6 7 8 
9 10 11 12 13 14 15 16 17 
18 19 20 21 22 23 24 25 26 
27 28 29 30 31 32 33 34 35 
36 37 38 39 40 41 42 43 44 
45 46 47 48 49 50 51 52 53 
54 55 56 57 58 59 60 61 62 
63 64 65 66 67 68 69 70 71 
72 73 74 75 76 77 78 79 80 
81 82 83 84 85 86 
METADATA
INFORMATION 0

Scalar 1 87 float
0.674135 0.557937 0.654664 0.612677 0.645866 0.563988 0.634862 0.61719 0.557465 
0.617126 0.582469 0.599496 0.56759 0.585275 0.547029 0.582737 0.578989 0.458892 
0.577447 0.547121 0.567029 0.531763 0.566852 0.528286 0.558996 0.454867 0.555931 
0.529828 0.522985 0.452585 0.519371 0.469598 0.505374 0.483598 0.497255 0.436065 
0.487971 0.487305 0.474085 0.435303 0.473487 0.444945 0.463761 0.436824 0.443192 
0.413877 0.442484 0.409704 0.442291 0.417341 0.441932 0.406953 0.273091 0.189783 
0.272317 0.190849 0.250642 0.218714 0.236245 0.188977 0.234303 0.184352 0.0822564 
0.0497223 0 0.0499091 0.000604788 0.025692 0.000830003 0.0151551 0.0410655 0.0441736 
0.0825935 0.0492374 0.0897769 0.0498347 0.0718456 0.10903 0.143578 0.109394 0.127581 
0.25263 0.212538 0.234527 0.542519 0.444759 0.410326 
METADATA
INFORMATION 0

VertexId 1 87 int
374044 390496 414942 406815 464223 439197 407265 300062 316829 
430877 422941 406045 414301 397342 405726 316956 512733 503902 
348704 357216 421726 405470 340191 340320 233886 242209 364446 
388894 4765 37087 282718 282847 471456 471455 200799 217246 
511838 53408 61534 61535 257822 265951 4191 4254 118687 
110495 233311 233374 94111 86046 28383 20447 395426 395615 
379035 403806 316197 308198 10395 100507 2210 116898 5601 
114520 1886 74070 439117 267745 455470 373225 381417 118617 
126871 135012 143270 488087 471766 520929 512737 512801 4705 
4961 414809 414872 341598 494879 126879 
METADATA
INFORMATION 0

RegionSize 1 87 int
122 103 8 22 59 24 10 47 36 
16 30 4 14 7 43 10 69 33 
12 1 14 25 28 872 36 218 20 
24 30 23 7 326 0 297 24 727 
11 7 14 46 4 1 4 3 4 
14 6 97 5 10 11 8441 462 78 
532 108 11 1996 75 502 78 5287 5264 
149774 6758 135176 28271 109610 32450 0 149774 17 
2631 28 11620 3 6068 0 5287 0 28 
8441 1 1263 164 230 15 
METADATA
INFORMATION 0

RegionSpan 1 87 int
0 0 0 0 0 0 0 0 0 
0 0 0 0 0 0 0 0 0 
0 0 0 0 0 0 0 0 0 
0 0 0 0 0 0 0 0 0 
0 0 0 0 0 0 0 0 0 
0 0 0 0 0 0 0 0 0 
0 0 0 0 0 0 0 0 0 
1 0 1 0 0 0 0 1 0 
0 0 0 0 0 0 0 0 0 
0 0 0 0 0 0 
METADATA
INFORMATION 0

