# vtk DataFile Version 4.2
vtk output
ASCII
DATASET UNSTRUCTURED_GRID
POINTS 58 float
0.46875 1.21875 0.765625 0.453125 1.21875 0.640625 0.453125 1.21875 0.890625 
0.46875 1.17188 0.828125 0.453125 1.21875 0.625 0.46875 1.04688 0.796875 
0.46875 1 0.8125 0.484375 1.07812 0.953125 0.453125 1.125 0.890625 
0.484375 1.03125 0.828125 0.484375 1.07812 0.828125 0.5 1.15625 0.5625 
0.5 1.20312 0.578125 0.453125 1 0.0625 0.484375 0.96875 0.109375 
0.484375 0.96875 0.390625 0.46875 1 0.40625 0.484375 0.84375 0.546875 
0.484375 0.875 0.546875 0.484375 0.953125 0.125 0.46875 0.9375 0.34375 
0.484375 0.9375 0.359375 0.46875 0.90625 0 0.46875 0.953125 0.015625 
0.515625 1.23438 0.890625 0.515625 1.25 0.890625 0.421875 0.53125 0.734375 
0.46875 0.578125 0.734375 0.53125 0.53125 0.734375 0.484375 0.578125 0.75 
0.421875 0.53125 0 0.421875 0.53125 0.265625 0.53125 0.53125 0 
0.53125 0.53125 0.234375 0.46875 0.453125 0 0.6875 0.0625 0.28125 
0.734375 1.10938 0.765625 0.328125 1.1875 0.859375 0.359375 1.17188 0.859375 
0.4375 1.25 0.546875 0.421875 1.25 0.546875 0.40625 1.23438 0.5625 
0.390625 1.23438 0.5625 0.578125 1.17188 0.546875 0.59375 1.17188 0.546875 
0.59375 1.125 0.90625 0.625 1.125 0.9375 0.59375 1.15625 0.5625 
0.609375 1.15625 0.546875 0.5625 0.90625 0.234375 0.578125 0.90625 0.234375 
0.375 1.0625 0.546875 0.359375 1.0625 0.546875 0.390625 0.90625 0.265625 
0.375 0.90625 0.265625 0.40625 1.14062 0.796875 0.390625 1.15625 0.796875 
0.484375 0.921875 0.3125 
METADATA
INFORMATION 2
NAME L2_NORM_RANGE LOCATION vtkDataArray
DATA 2 0.651958 1.61913 
NAME L2_NORM_FINITE_RANGE LOCATION vtkDataArray
DATA 2 0.651958 1.61913 

CELL_TYPES 0

POINT_DATA 58
SCALARS CriticalType int
LOOKUP_TABLE default
3 2 3 2 3 3 2 3 2 
3 2 3 2 3 2 3 2 3 
2 3 3 2 3 2 3 2 3 
2 3 2 3 2 3 2 0 1 
0 1 0 0 1 0 1 0 1 
0 1 0 1 0 1 0 1 0 
1 0 1 2 
METADATA
INFORMATION 0

FIELD FieldData 5
NodeId 1 58 int
0 1 2 3 4 5 6 7 8 
9 10 11 12 13 14 15 16 17 
18 19 20 21 22 23 24 25 26 
27 28 29 30 31 32 33 34 35 
36 37 38 39 40 41 42 43 44 
45 46 47 48 49 50 51 52 53 
54 55 56 57 
METADATA
INFORMATION 0

Scalar 1 58 float
0.69936 0.591177 0.622382 0.548276 0.616138 0.605897 0.561834 0.59912 0.535271 
0.590532 0.566439 0.587634 0.522396 0.515165 0.431762 0.477308 0.448532 0.468587 
0.44136 0.456747 0.444898 0.422341 0.443621 0.388844 0.396677 0.365689 0.272606 
0.191274 0.272056 0.190036 0.233971 0.190041 0.233064 0.189488 0 0.0498866 
0.000611867 0.0338656 0.00721076 0.0107019 0.044758 0.017732 0.0478435 0.020478 0.0660042 
0.020538 0.0575065 0.0214656 0.0524761 0.0314226 0.0666292 0.0420675 0.0637802 0.0473535 
0.0808295 0.209191 0.233304 0.401912 
METADATA
INFORMATION 0

VertexId 1 58 int
406430 340893 471965 439006 332701 422110 430110 504159 471581 
438431 438623 299680 308064 36893 61343 208799 217118 290207 
290335 69471 184094 192287 3742 12126 472033 472097 387227 
387422 387234 395615 2203 141467 2210 125090 1886 147756 
405999 455445 455383 291868 291867 299994 299993 291557 291558 
479782 496168 299686 291495 126628 126629 291096 291095 143001 
143000 422490 422553 167647 
METADATA
INFORMATION 0

RegionSize 1 58 int
175 109 29 115 4 5 71 25 158 
3 22 43 1201 64 92 6 144 4 
443 6 4 501 30 802 0 6410 546 
110 456 48 78 1 64 19093 6365 111124 
87513 102753 11 1 47791 0 85109 0 615 
7 11799 2 25748 6 9147 2 2580 10 
19093 3 6410 390 
METADATA
INFORMATION 0

RegionSpan 1 58 int
0 0 0 0 0 0 0 0 0 
0 0 0 0 0 0 0 0 0 
0 0 0 0 0 0 0 0 0 
0 0 0 0 0 0 0 0 1 
0 0 0 0 0 0 1 0 0 
0 0 0 0 0 0 0 0 0 
0 0 0 0 
METADATA
INFORMATION 0

