# vtk DataFile Version 4.2
vtk output
ASCII
DATASET UNSTRUCTURED_GRID
POINTS 86 float
0.46875 1.32812 0.703125 0.46875 1.15625 0.6875 0.484375 1.3125 0.875 
0.453125 1.3125 0.828125 0.46875 1.10938 0.671875 0.46875 1.125 0.796875 
0.484375 1.125 0.765625 0.46875 1.1875 0.625 0.46875 1.14062 0.640625 
0.484375 1.42188 0.78125 0.53125 1.375 0.75 0.4375 1.51562 0.734375 
0.453125 1.48438 0.734375 0.484375 1.09375 0.75 0.453125 1.17188 0.484375 
0.484375 1.21875 0.546875 0.53125 1.375 0.734375 0.46875 1.10938 0.03125 
0.46875 1.0625 0.0625 0.46875 1.07812 0.875 0.46875 0.890625 0.796875 
0.46875 0.921875 0.703125 0.484375 0.921875 0.6875 0.484375 0.96875 0.78125 
0.484375 1 0.765625 0.5 1.09375 0.578125 0.5 1.10938 0.578125 
0.453125 1.45312 0.84375 0.46875 1.4375 0.84375 0.46875 1.03125 0.09375 
0.46875 0.921875 0.5 0.484375 0.921875 0.53125 0.5 1.0625 0.40625 
0.46875 1.10938 0.453125 0.46875 0.9375 0 0.46875 0.96875 0 
0.453125 0.9375 0.96875 0.453125 0.921875 0.96875 0.46875 0.96875 0.25 
0.484375 0.96875 0.21875 0.5 1.17188 0.4375 0.5 1.15625 0.4375 
0.359375 1.3125 0.609375 0.390625 1.32812 0.625 0.53125 1.14062 0.0625 
0.53125 1.125 0.0625 0.421875 0.53125 0.75 0.46875 0.578125 0.734375 
0.53125 0.53125 0.75 0.53125 0.53125 0.265625 0.421875 0.53125 0 
0.421875 0.53125 0.234375 0.53125 0.53125 0 0.46875 0.453125 0 
0.546875 0.015625 0.0625 0.765625 1.20312 0.75 0.328125 0.9375 0.984375 
0.578125 1.28125 0.5625 0.59375 1.28125 0.5625 0.40625 0.9375 0.984375 
0.609375 1.26562 0.859375 0.625 1.23438 0.859375 0.546875 1.07812 0.515625 
0.578125 1.09375 0.515625 0.4375 1.35938 0.9375 0.4375 1.35938 0.953125 
0.65625 1.17188 0.78125 0.671875 1.1875 0.796875 0.390625 0.96875 0.265625 
0.359375 0.96875 0.265625 0.515625 1.3125 0.953125 0.53125 1.3125 0.96875 
0.578125 0.96875 0.21875 0.59375 0.96875 0.21875 0.453125 1.5 0.765625 
0.484375 1.51562 0.75 0.5 1.5 0.75 0.390625 1.3125 0.59375 
0.390625 1.28125 0.609375 0.421875 1.1875 0.9375 0.421875 1.17188 0.9375 
0.484375 1.125 0.734375 0.53125 1.35938 0.765625 0.484375 0.578125 0.71875 
0.40625 1.48438 0.765625 0.484375 0.96875 0.265625 
METADATA
INFORMATION 2
NAME L2_NORM_RANGE LOCATION vtkDataArray
DATA 2 0.550657 1.75904 
NAME L2_NORM_FINITE_RANGE LOCATION vtkDataArray
DATA 2 0.550657 1.75904 

CELL_TYPES 0

POINT_DATA 86
SCALARS CriticalType int
LOOKUP_TABLE default
3 2 3 2 3 3 2 3 2 
3 2 3 2 3 3 2 3 3 
2 3 2 3 2 3 2 3 2 
3 2 3 3 2 3 2 3 2 
3 2 3 2 3 2 3 2 3 
2 3 2 3 2 3 2 3 0 
1 0 1 0 1 0 0 1 0 
1 0 1 0 1 0 1 0 1 
0 1 0 1 0 0 1 0 1 
2 2 2 1 2 
METADATA
INFORMATION 0

FIELD FieldData 5
NodeId 1 86 int
0 1 2 3 4 5 6 7 8 
9 10 11 12 13 14 15 16 17 
18 19 20 21 22 23 24 25 26 
27 28 29 30 31 32 33 34 35 
36 37 38 39 40 41 42 43 44 
45 46 47 48 49 50 51 52 53 
54 55 56 57 58 59 60 61 62 
63 64 65 66 67 68 69 70 71 
72 73 74 75 76 77 78 79 80 
81 82 83 84 85 
METADATA
INFORMATION 0

Scalar 1 86 float
0.703681 0.586354 0.631832 0.512788 0.621596 0.621249 0.56038 0.617184 0.585299 
0.615997 0.550305 0.599757 0.574751 0.583748 0.582755 0.4834 0.575647 0.572843 
0.453156 0.568998 0.527638 0.561477 0.519393 0.558722 0.532403 0.524193 0.502615 
0.499513 0.473814 0.498066 0.488834 0.454369 0.485292 0.438768 0.466463 0.436188 
0.452496 0.429669 0.430642 0.408051 0.394456 0.368155 0.331706 0.307275 0.320371 
0.295599 0.27294 0.189076 0.271966 0.190294 0.235218 0.184985 0.233648 0 
0.0498972 0.000505906 0.0349192 0.00811816 0.039155 0.00840063 0.0100839 0.0435763 0.0161822 
0.0425532 0.0164278 0.0554383 0.0187398 0.044034 0.0399545 0.0712701 0.048787 0.0754509 
0.0554244 0.0789968 0.0819356 0.108794 0.0850106 0.150863 0.18311 0.165314 0.189707 
0.548441 0.548212 0.189002 0.111136 0.396371 
METADATA
INFORMATION 0

VertexId 1 86 int
374110 365214 464159 439581 356830 422430 406047 332574 340574 
415455 398882 391260 391133 397727 258781 291743 390690 20958 
37150 463198 421470 372446 364255 413599 405535 307616 307680 
448349 448286 53406 265950 282335 217376 242142 3870 3998 
511773 511709 135070 118687 234208 234144 324887 333145 37474 
37410 395419 387422 395426 141474 2203 125083 2210 1886 
32867 398193 519957 300197 300198 519962 455783 455656 274787 
274853 497116 505308 414442 422699 143257 143255 505121 513314 
118693 118694 407581 399455 399392 316697 324761 496411 496347 
389663 407010 379231 407514 143263 
METADATA
INFORMATION 0

RegionSize 1 86 int
136 4 112 201 12 8 39 8 58 
66 6 3 125 9 51 222 5 42 
37 36 146 20 109 9 62 0 380 
2 493 16 9 390 35 220 7 106 
5 992 3 59 0 3319 14 683 0 
7134 565 6 456 20 94 218 62 6848 
107540 114577 33958 2 43326 37 28 5396 8 
12568 0 27830 9 127569 11 2816 0 2016 
16 10324 9 3 8 4 218 2 7134 
1 161 416 10670 1172 
METADATA
INFORMATION 0

RegionSpan 1 86 int
0 0 0 0 0 0 0 0 0 
0 0 0 0 0 0 0 0 0 
0 0 0 0 0 0 0 0 0 
0 0 0 0 0 0 0 0 0 
0 0 0 0 0 0 0 0 0 
0 0 0 0 0 0 0 0 0 
1 0 0 0 0 0 0 0 0 
0 0 0 0 1 0 0 0 0 
0 0 0 0 0 0 0 0 0 
0 0 0 0 0 
METADATA
INFORMATION 0

