# vtk DataFile Version 4.2
vtk output
ASCII
DATASET UNSTRUCTURED_GRID
POINTS 86 float
0.46875 1.3125 0.765625 0.46875 1.28125 0.71875 0.484375 1.3125 0.6875 
0.484375 1.10938 0.953125 0.515625 1.17188 0.9375 0.484375 1.125 0.5625 
0.5 1.28125 0.59375 0.46875 1.10938 0.796875 0.46875 1.125 0.78125 
0.453125 1.26562 0.875 0.4375 1.26562 0.859375 0.4375 1.26562 0.828125 
0.46875 0.9375 0.765625 0.46875 1.01562 0.75 0.515625 1.1875 0.9375 
0.46875 1.01562 0.875 0.484375 0.875 0.859375 0.484375 0.921875 0.71875 
0.484375 0.875 0.734375 0.453125 1.09375 0.875 0.453125 1.125 0.890625 
0.46875 1.09375 0.484375 0.484375 1.10938 0.5 0.453125 1.03125 0.0625 
0.46875 0.984375 0.109375 0.5 1.01562 0.625 0.484375 1.0625 0.640625 
0.484375 0.875 0.59375 0.46875 0.859375 0.609375 0.484375 1.01562 0.578125 
0.484375 1.0625 0.578125 0.5 1 0.375 0.453125 1.01562 0.40625 
0.484375 0.875 0.546875 0.484375 0.921875 0.5625 0.484375 0.96875 0.125 
0.46875 0.90625 0.015625 0.484375 1.01562 0 0.46875 0.953125 0.328125 
0.484375 0.96875 0.359375 0.46875 0.84375 0.390625 0.46875 0.828125 0.359375 
0.515625 1.07812 0.40625 0.5 1.07812 0.390625 0.421875 1.09375 0.984375 
0.4375 1.07812 0.984375 0.421875 0.53125 0.734375 0.46875 0.578125 0.734375 
0.53125 0.53125 0.734375 0.484375 0.578125 0.75 0.421875 0.53125 0 
0.421875 0.53125 0.265625 0.53125 0.53125 0 0.53125 0.53125 0.234375 
0.46875 0.453125 0 0.546875 0.0625 0.296875 0.25 1.1875 0.59375 
0.359375 1.28125 0.578125 0.609375 1.1875 0.578125 0.625 1.20312 0.546875 
0.484375 1.28125 0.984375 0.59375 1.29688 0.984375 0.609375 1.15625 0.921875 
0.609375 1.15625 0.953125 0.3125 1.07812 0.734375 0.3125 1.09375 0.75 
0.375 1.28125 0.578125 0.390625 0.9375 0.25 0.375 0.9375 0.265625 
0.453125 1.28125 0.953125 0.4375 1.28125 0.96875 0.5625 0.9375 0.234375 
0.59375 0.921875 0.234375 0.515625 1.10938 0.484375 0.53125 1.09375 0.46875 
0.4375 1.14062 0.96875 0.40625 1.125 0.9375 0.53125 1.23438 0.84375 
0.53125 1.21875 0.84375 0.453125 1.125 0 0.453125 1.15625 0.015625 
0.46875 1.26562 0.796875 0.453125 1.26562 0.78125 0.453125 1.26562 0.828125 
0.453125 1.15625 0.859375 0.46875 0.953125 0.1875 
METADATA
INFORMATION 2
NAME L2_NORM_RANGE LOCATION vtkDataArray
DATA 2 0.625391 1.73304 
NAME L2_NORM_FINITE_RANGE LOCATION vtkDataArray
DATA 2 0.625391 1.73304 

CELL_TYPES 0

POINT_DATA 86
SCALARS CriticalType int
LOOKUP_TABLE default
3 2 3 3 2 3 2 3 2 
3 2 3 3 2 3 3 2 3 
2 3 2 3 2 3 2 3 2 
3 2 3 2 3 2 3 2 3 
3 2 3 2 3 2 3 2 3 
2 3 2 3 2 3 2 3 2 
0 1 0 1 0 1 0 1 0 
1 0 1 0 0 1 0 1 0 
1 0 1 0 1 0 1 0 1 
0 1 2 2 2 
METADATA
INFORMATION 0

FIELD FieldData 5
NodeId 1 86 int
0 1 2 3 4 5 6 7 8 
9 10 11 12 13 14 15 16 17 
18 19 20 21 22 23 24 25 26 
27 28 29 30 31 32 33 34 35 
36 37 38 39 40 41 42 43 44 
45 46 47 48 49 50 51 52 53 
54 55 56 57 58 59 60 61 62 
63 64 65 66 67 68 69 70 71 
72 73 74 75 76 77 78 79 80 
81 82 83 84 85 
METADATA
INFORMATION 0

Scalar 1 86 float
0.700797 0.6326 0.673249 0.605536 0.54806 0.602659 0.515106 0.595822 0.56971 
0.593806 0.552192 0.587774 0.576381 0.534041 0.571056 0.548808 0.50731 0.539261 
0.517025 0.538423 0.513563 0.53083 0.480816 0.529362 0.42426 0.513893 0.484038 
0.502444 0.469819 0.495301 0.470946 0.493023 0.434062 0.491064 0.466852 0.460312 
0.451501 0.41882 0.447623 0.423267 0.385391 0.360221 0.38495 0.361778 0.329296 
0.305019 0.272359 0.191436 0.272301 0.18983 0.234494 0.189869 0.233462 0.189303 
0 0.0498897 0.000739674 0.0390684 0.00802896 0.0396646 0.0119392 0.0446691 0.0121732 
0.0493777 0.0145906 0.0478269 0.0146885 0.0320504 0.0808488 0.0327658 0.059547 0.0401084 
0.0706809 0.111318 0.142223 0.155076 0.181727 0.193521 0.220965 0.223411 0.259087 
0.326428 0.349215 0.540669 0.511112 0.405955 
METADATA
INFORMATION 0

VertexId 1 86 int
406814 382110 365855 504287 496353 299551 316576 422366 414238 
463965 455772 439388 405278 397406 496417 462942 454175 380639 
388639 463261 471581 258462 266719 37021 61406 331872 340255 
314911 323038 307295 307487 200736 217181 290335 298719 69535 
11934 4191 175966 192415 208286 191838 217441 209248 520603 
520540 387227 387422 387234 395615 2203 141467 2210 125090 
1886 155939 316176 308375 308007 291688 521375 521446 488103 
504487 389460 397716 308376 134937 143128 504989 513180 126756 
126694 258529 250274 512604 496154 447458 447394 4637 12957 
423006 414813 439389 455325 102238 
METADATA
INFORMATION 0

RegionSize 1 86 int
23 230 33 16 50 41 45 13 188 
4 10 8 12 158 1 12 408 12 
19 8 3 21 197 78 17 6 62 
11 61 4 34 21 281 4 754 5 
20 47 5 503 9 515 6 74 1 
2593 547 115 455 63 81 6 65 833 
6263 133372 135825 5120 5 62244 48 49946 3 
26668 6 48363 0 12 14444 0 13994 12 
5965 5 4939 6 833 0 2299 3 2593 
2 515 59 60 1668 
METADATA
INFORMATION 0

RegionSpan 1 86 int
0 0 0 0 0 0 0 0 0 
0 0 0 0 0 0 0 0 0 
0 0 0 0 0 0 0 0 0 
0 0 0 0 0 0 0 0 0 
0 0 0 0 0 0 0 0 0 
0 0 0 0 0 0 0 0 0 
0 1 0 0 0 0 0 0 0 
1 0 0 0 0 0 0 0 0 
0 0 0 0 0 0 0 0 0 
0 0 0 0 0 
METADATA
INFORMATION 0

