# vtk DataFile Version 4.2
vtk output
ASCII
DATASET UNSTRUCTURED_GRID
POINTS 48 float
0.46875 1.14062 0.8125 0.46875 1.0625 0.78125 0.46875 1.0625 0.765625 
0.453125 1.07812 0.71875 0.453125 1.04688 0.75 0.484375 1.07812 0.671875 
0.484375 1.07812 0.640625 0.46875 1.04688 0.5625 0.46875 1 0 
0.484375 0.953125 0.0625 0.484375 0.921875 0.546875 0.484375 0.96875 0.546875 
0.46875 0.84375 0.59375 0.46875 0.875 0.5625 0.484375 0.921875 0.078125 
0.484375 0.90625 0.390625 0.484375 0.921875 0.40625 0.46875 0.890625 0.109375 
0.46875 0.921875 0.109375 0.421875 0.53125 0.71875 0.46875 0.578125 0.703125 
0.53125 0.53125 0.75 0.484375 0.578125 0.75 0.421875 0.53125 0 
0.421875 0.53125 0.21875 0.53125 0.53125 0 0.53125 0.53125 0.296875 
0.46875 0.453125 0 0.296875 0.078125 0.296875 0.265625 1.04688 0.578125 
0.421875 1.14062 0.9375 0.6875 1.04688 0.90625 0.609375 0.984375 0.765625 
0.625 1.01562 0.828125 0.59375 1.10938 0.625 0.609375 1.07812 0.625 
0.359375 1.04688 0.625 0.359375 1 0.671875 0.40625 0.84375 0.234375 
0.390625 0.859375 0.25 0.359375 1.07812 0.5625 0.34375 1.07812 0.578125 
0.546875 0.84375 0.25 0.5625 0.859375 0.203125 0.578125 1.01562 0.59375 
0.609375 1.03125 0.578125 0.5 1.0625 0.6875 0.484375 0.84375 0.234375 

METADATA
INFORMATION 2
NAME L2_NORM_RANGE LOCATION vtkDataArray
DATA 2 0.427052 1.54593 
NAME L2_NORM_FINITE_RANGE LOCATION vtkDataArray
DATA 2 0.427052 1.54593 

CELL_TYPES 0

POINT_DATA 48
SCALARS CriticalType int
LOOKUP_TABLE default
3 2 3 3 2 3 2 3 3 
2 3 2 3 2 3 3 2 3 
2 3 2 3 2 3 2 3 2 
0 1 0 1 0 0 1 0 1 
0 1 0 1 0 1 0 1 0 
1 2 2 
METADATA
INFORMATION 0

FIELD FieldData 5
NodeId 1 48 int
0 1 2 3 4 5 6 7 8 
9 10 11 12 13 14 15 16 17 
18 19 20 21 22 23 24 25 26 
27 28 29 30 31 32 33 34 35 
36 37 38 39 40 41 42 43 44 
45 46 47 
METADATA
INFORMATION 0

Scalar 1 48 float
0.656312 0.584696 0.620282 0.609028 0.578768 0.599986 0.548828 0.58563 0.523398 
0.459354 0.496645 0.471264 0.48734 0.459689 0.48575 0.467539 0.442303 0.461649 
0.433662 0.273183 0.190312 0.273172 0.1892 0.234036 0.185329 0.233447 0.18872 
0 0.0499023 0.000997117 0.0323983 0.00101194 0.00275725 0.0406076 0.00751664 0.0363086 
0.0112462 0.033461 0.0216425 0.06039 0.0231207 0.0461775 0.0300597 0.0687941 0.0316341 
0.0591779 0.545586 0.389505 
METADATA
INFORMATION 0

VertexId 1 48 int
430686 413982 405790 381277 397533 356703 340319 299230 4126 
36703 290527 290719 314782 298526 44767 208543 216799 61022 
61150 379035 371038 395426 395615 2203 116891 2210 157858 
1886 155987 307409 496219 479468 405479 438376 332262 332135 
331991 356375 126362 134617 299351 307542 134563 110052 315493 
307367 364832 126367 
METADATA
INFORMATION 0

RegionSize 1 48 int
39 8 12 21 133 27 6 36 28 
24 4 167 7 279 5 3 1028 5 
92 559 70 458 34 95 22639 75 246 
6589 158232 28819 6338 31340 19 66730 3 30665 
7 17439 11 9631 2 131330 7 22639 8 
2346 761 7863 
METADATA
INFORMATION 0

RegionSpan 1 48 int
0 0 0 0 0 0 0 0 0 
0 0 0 0 0 0 0 0 0 
0 0 0 0 0 0 0 0 0 
0 1 0 0 0 0 0 0 0 
0 0 0 0 0 1 0 0 0 
0 0 0 
METADATA
INFORMATION 0

