# vtk DataFile Version 4.2
vtk output
ASCII
DATASET UNSTRUCTURED_GRID
POINTS 62 float
0.46875 1.14062 0.859375 0.453125 1.1875 0.828125 0.46875 1.21875 0.734375 
0.46875 1.21875 0.703125 0.484375 1.20312 0.6875 0.484375 1.1875 0.78125 
0.484375 1.21875 0.796875 0.46875 1.21875 0.8125 0.46875 1.07812 0.96875 
0.484375 1.10938 0.9375 0.46875 1.03125 0.765625 0.46875 1.07812 0.796875 
0.4375 1.04688 0.71875 0.4375 1.07812 0.703125 0.46875 1.23438 0.578125 
0.46875 1.20312 0.59375 0.453125 1.04688 0 0.484375 0.890625 0.25 
0.5 1.15625 0.921875 0.5 1.15625 0.90625 0.484375 1 0.65625 
0.484375 1.03125 0.640625 0.46875 1.01562 0.4375 0.484375 1.03125 0.453125 
0.484375 0.953125 0.890625 0.46875 0.953125 0.859375 0.484375 0.90625 0.515625 
0.46875 0.875 0.53125 0.484375 0.90625 0.015625 0.46875 0.9375 0.03125 
0.53125 0.53125 0.75 0.484375 0.578125 0.75 0.421875 0.53125 0.75 
0.46875 0.578125 0.765625 0.421875 0.53125 0.015625 0.421875 0.53125 0.234375 
0.53125 0.53125 0 0.53125 0.53125 0.21875 0.46875 0.453125 0 
0.71875 0.21875 0.1875 0.21875 1.09375 0.765625 0.40625 1.23438 0.515625 
0.6875 1.125 0.53125 0.59375 1.125 0.84375 0.609375 1.10938 0.875 
0.421875 1.23438 0.5625 0.4375 1.23438 0.546875 0.625 1.03125 0.71875 
0.625 1.04688 0.734375 0.375 1.20312 0.59375 0.34375 1.17188 0.609375 
0.640625 1.0625 0.765625 0.40625 0.890625 0.203125 0.375 0.890625 0.203125 
0.375 1.07812 0.921875 0.359375 1.07812 0.921875 0.5625 0.890625 0.25 
0.578125 0.890625 0.25 0.515625 1.07812 0 0.546875 1.07812 0 
0.484375 1.26562 0.75 0.65625 1.07812 0.75 
METADATA
INFORMATION 2
NAME L2_NORM_RANGE LOCATION vtkDataArray
DATA 2 0.651958 1.56101 
NAME L2_NORM_FINITE_RANGE LOCATION vtkDataArray
DATA 2 0.651958 1.56101 

CELL_TYPES 0

POINT_DATA 62
SCALARS CriticalType int
LOOKUP_TABLE default
3 2 3 2 3 3 2 3 3 
2 3 2 3 2 3 2 3 2 
3 2 3 2 3 2 3 2 3 
2 3 2 3 2 3 2 3 2 
3 2 0 1 0 1 0 0 1 
0 1 0 1 0 1 0 0 1 
0 1 0 1 0 1 2 1 
METADATA
INFORMATION 0

FIELD FieldData 5
NodeId 1 62 int
0 1 2 3 4 5 6 7 8 
9 10 11 12 13 14 15 16 17 
18 19 20 21 22 23 24 25 26 
27 28 29 30 31 32 33 34 35 
36 37 38 39 40 41 42 43 44 
45 46 47 48 49 50 51 52 53 
54 55 56 57 58 59 60 61 
METADATA
INFORMATION 0

Scalar 1 62 float
0.653376 0.581218 0.639568 0.6121 0.638615 0.637495 0.600287 0.628947 0.592472 
0.51981 0.585541 0.554033 0.584072 0.547363 0.574258 0.550303 0.566439 0.402045 
0.56395 0.538265 0.547975 0.516832 0.526287 0.501053 0.52319 0.500126 0.488802 
0.45902 0.438632 0.387722 0.273494 0.189542 0.271854 0.191273 0.236449 0.187614 
0.234602 0.184762 0 0.0499198 0.000574269 0.0290308 0.00182282 0.00691223 0.0346188 
0.0111291 0.0482033 0.0114028 0.0342225 0.0116887 0.050946 0.0120238 0.0440549 0.073584 
0.0463032 0.0709312 0.0466573 0.0750075 0.239257 0.27295 0.585828 0.0359015 
METADATA
INFORMATION 0

VertexId 1 62 int
455262 439069 390046 373662 365407 414495 422815 431006 512350 
496095 405662 422238 381148 373084 308190 316254 4317 134751 
488096 479904 348191 340127 233566 241823 470879 454494 274079 
282142 11935 20254 395426 395615 395419 403806 10395 125083 
2210 116898 1886 99246 405902 275418 283180 447014 463335 
299995 291804 381096 389352 316248 324310 405801 110170 110168 
487768 487767 134756 134757 4449 4451 398431 397674 
METADATA
INFORMATION 0

RegionSize 1 62 int
24 161 8 72 14 21 16 1 32 
47 12 26 8 68 8 26 140 404 
3 189 16 208 7 8 5 672 4 
1213 22 4841 471 158 523 142 79 307 
78 20626 7232 84092 26291 31783 29198 18 7986 
0 86394 3 3 2 70927 11 11 840 
3 1767 13 20626 4 4841 18 142689 
METADATA
INFORMATION 0

RegionSpan 1 62 int
0 0 0 0 0 0 0 0 0 
0 0 0 0 0 0 0 0 0 
0 0 0 0 0 0 0 0 0 
0 0 0 0 0 0 0 0 0 
0 0 0 1 0 0 0 0 0 
0 1 0 0 0 0 0 0 0 
0 0 0 0 0 0 0 0 
METADATA
INFORMATION 0

