# vtk DataFile Version 4.2
vtk output
ASCII
DATASET UNSTRUCTURED_GRID
POINTS 64 float
0.46875 1.17188 0.859375 0.453125 1.20312 0.8125 0.484375 1.23438 0.78125 
0.484375 1.25 0.6875 0.46875 1.17188 0.609375 0.484375 1.125 0.53125 
0.4375 1.10938 0.71875 0.453125 1.125 0.703125 0.46875 1.09375 0.96875 
0.484375 1.14062 0.9375 0.46875 1.26562 0.578125 0.46875 1.25 0.59375 
0.453125 1.07812 0 0.46875 0.96875 0 0.484375 1.01562 0.65625 
0.484375 1.0625 0.671875 0.46875 0.90625 0.75 0.46875 0.921875 0.765625 
0.5 1.25 0.921875 0.515625 1.23438 0.90625 0.46875 1.03125 0.4375 
0.484375 1.04688 0.46875 0.46875 0.859375 0.78125 0.46875 0.921875 0.796875 
0.484375 0.921875 0.5625 0.46875 0.953125 0.546875 0.484375 0.921875 0.515625 
0.46875 0.890625 0.546875 0.484375 0.96875 0.390625 0.484375 0.984375 0.390625 
0.484375 0.921875 0.015625 0.53125 0.53125 0.75 0.484375 0.578125 0.75 
0.421875 0.53125 0.75 0.46875 0.578125 0.765625 0.421875 0.53125 0.015625 
0.421875 0.53125 0.234375 0.53125 0.53125 0 0.53125 0.53125 0.21875 
0.46875 0.453125 0 0.3125 0.015625 0.421875 0.734375 1.09375 0.703125 
0.421875 1.26562 0.5 0.21875 1.125 0.828125 0.609375 1.14062 0.84375 
0.625 1.10938 0.890625 0.625 1.04688 0.703125 0.625 1.04688 0.734375 
0.4375 1.23438 0.96875 0.40625 1.23438 0.953125 0.5625 0.90625 0.25 
0.578125 0.90625 0.25 0.390625 0.90625 0.234375 0.375 0.90625 0.1875 
0.390625 1.23438 0.578125 0.359375 1.23438 0.5625 0.375 1.09375 0.921875 
0.359375 1.09375 0.921875 0.578125 1.09375 0.640625 0.578125 1.10938 0.625 
0.515625 1.09375 0 0.53125 1.125 0 0.484375 1.29688 0.75 
0.46875 0.90625 0.25 
METADATA
INFORMATION 2
NAME L2_NORM_RANGE LOCATION vtkDataArray
DATA 2 0.525242 1.63167 
NAME L2_NORM_FINITE_RANGE LOCATION vtkDataArray
DATA 2 0.525242 1.63167 

CELL_TYPES 0

POINT_DATA 64
SCALARS CriticalType int
LOOKUP_TABLE default
3 2 3 3 2 3 3 2 3 
2 3 2 3 2 3 2 3 2 
3 2 3 2 3 2 3 2 3 
2 3 2 3 3 2 3 2 3 
2 3 2 0 1 0 1 0 0 
1 0 1 0 1 0 1 0 1 
0 1 0 1 0 1 0 1 2 
2 
METADATA
INFORMATION 0

FIELD FieldData 5
NodeId 1 64 int
0 1 2 3 4 5 6 7 8 
9 10 11 12 13 14 15 16 17 
18 19 20 21 22 23 24 25 26 
27 28 29 30 31 32 33 34 35 
36 37 38 39 40 41 42 43 44 
45 46 47 48 49 50 51 52 53 
54 55 56 57 58 59 60 61 62 
63 
METADATA
INFORMATION 0

Scalar 1 64 float
0.649789 0.572744 0.639949 0.637245 0.576453 0.614935 0.60329 0.573511 0.599551 
0.512382 0.586611 0.557077 0.573752 0.401892 0.549378 0.51871 0.548001 0.522581 
0.547485 0.524937 0.534638 0.490762 0.524885 0.489526 0.499785 0.475951 0.491576 
0.466602 0.470369 0.434793 0.448847 0.273424 0.189582 0.271855 0.191255 0.236386 
0.188162 0.234563 0.184667 0 0.049907 0.00106082 0.0290153 0.00135009 0.00895661 
0.0304881 0.00938664 0.0356542 0.0131265 0.0363233 0.038561 0.0786525 0.0414813 0.0788496 
0.0418294 0.0636445 0.0441236 0.0711651 0.0836575 0.106717 0.217749 0.252194 0.572387 
0.400094 
METADATA
INFORMATION 0

VertexId 1 64 int
455390 430941 414687 365599 324318 283167 381404 373277 512414 
496223 308318 316446 4445 3998 348255 356639 396958 405214 
488480 480225 233630 250079 413150 421598 298719 290654 274143 
290398 208799 208863 11999 395426 395615 395419 403806 10395 
125083 2210 116898 1886 221268 373167 267355 438798 447079 
471528 372968 389352 512988 504794 134820 134821 126617 102040 
308185 299991 487832 487831 340389 332261 4513 4642 398559 
134814 
METADATA
INFORMATION 0

RegionSize 1 64 int
42 1 71 87 7 32 8 5 41 
370 10 297 150 6 17 84 4 41 
4 22 13 16 14 200 5 177 6 
623 7 848 19 470 122 523 146 79 
346 78 10610 6640 146815 31678 8015 28387 12 
30307 2 4389 9 221753 10 91 10 8635 
3 7273 3 4468 1 10610 3 6540 115 
6540 
METADATA
INFORMATION 0

RegionSpan 1 64 int
0 0 0 0 0 0 0 0 0 
0 0 0 0 0 0 0 0 0 
0 0 0 0 0 0 0 0 0 
0 0 0 0 0 0 0 0 0 
0 0 0 0 1 0 0 0 0 
0 0 0 0 1 0 0 0 0 
0 0 0 0 0 0 0 0 0 
0 
METADATA
INFORMATION 0

