# vtk DataFile Version 4.2
vtk output
ASCII
DATASET UNSTRUCTURED_GRID
POINTS 64 float
0.484375 1.42188 0.71875 0.46875 1.375 0.78125 0.484375 1.3125 0.859375 
0.46875 1.375 0.84375 0.46875 1.14062 0.8125 0.46875 1.17188 0.828125 
0.453125 1.42188 0.8125 0.5 1.20312 0.5625 0.46875 1.15625 0.5625 
0.453125 1.125 0.46875 0.5 1.17188 0.515625 0.4375 1.29688 0.59375 
0.453125 1.29688 0.625 0.46875 1.10938 0.59375 0.46875 0.953125 0.65625 
0.46875 0.96875 0.6875 0.421875 1.17188 0.953125 0.4375 1.15625 0.96875 
0.46875 1.125 0.96875 0.4375 1.07812 0 0.453125 1.0625 0.046875 
0.5 1.03125 0.078125 0.484375 0.984375 0.125 0.484375 1.03125 0.390625 
0.453125 1.07812 0.4375 0.484375 0.875 0 0.46875 0.890625 0.078125 
0.46875 0.96875 0.171875 0.46875 0.96875 0.3125 0.46875 0.96875 0.34375 
0.5 0.9375 0.4375 0.5 0.96875 0.40625 0.53125 0.53125 0.734375 
0.484375 0.578125 0.8125 0.421875 0.53125 0.75 0.46875 0.578125 0.796875 
0.5625 1.10938 0.984375 0.546875 1.0625 0.984375 0.53125 0.53125 0 
0.53125 0.53125 0.28125 0.421875 0.53125 0 0.421875 0.53125 0.265625 
0.46875 0.453125 0 0.765625 0.015625 0.46875 0.71875 1.1875 0.625 
0.5625 1.25 0.53125 0.5625 1.25 0.546875 0.5625 0.9375 0.234375 
0.578125 0.9375 0.234375 0.390625 0.953125 0.21875 0.359375 0.9375 0.203125 
0.390625 1.125 0.546875 0.359375 1.14062 0.53125 0.53125 1.125 0.96875 
0.546875 1.14062 0.9375 0.5 1.125 0 0.515625 1.14062 0 
0.375 1.15625 0.78125 0.40625 1.14062 0.796875 0.484375 1.29688 0.796875 
0.5 1.28125 0.78125 0.46875 0.90625 0.640625 0.5 1.03125 0.90625 
0.46875 0.953125 0.265625 
METADATA
INFORMATION 2
NAME L2_NORM_RANGE LOCATION vtkDataArray
DATA 2 0.651958 1.69918 
NAME L2_NORM_FINITE_RANGE LOCATION vtkDataArray
DATA 2 0.651958 1.69918 

CELL_TYPES 0

POINT_DATA 64
SCALARS CriticalType int
LOOKUP_TABLE default
3 2 3 2 3 2 3 3 2 
3 2 3 2 3 3 2 3 2 
3 3 2 3 2 3 2 3 2 
3 3 2 3 2 3 2 3 2 
3 2 3 2 3 2 0 1 0 
1 0 0 1 0 1 0 1 0 
1 0 1 0 1 0 1 2 2 
2 
METADATA
INFORMATION 0

FIELD FieldData 5
NodeId 1 64 int
0 1 2 3 4 5 6 7 8 
9 10 11 12 13 14 15 16 17 
18 19 20 21 22 23 24 25 26 
27 28 29 30 31 32 33 34 35 
36 37 38 39 40 41 42 43 44 
45 46 47 48 49 50 51 52 53 
54 55 56 57 58 59 60 61 62 
63 
METADATA
INFORMATION 0

Scalar 1 64 float
0.693891 0.60142 0.648586 0.602277 0.638765 0.590665 0.626231 0.589883 0.519566 
0.580643 0.46409 0.562315 0.50509 0.561617 0.549474 0.510525 0.524251 0.486792 
0.522897 0.519747 0.405677 0.499392 0.406884 0.49732 0.460708 0.461101 0.373747 
0.446639 0.442717 0.417727 0.427524 0.393292 0.272853 0.188473 0.272314 0.186975 
0.246072 0.20531 0.233805 0.186206 0.233772 0.186587 0 0.049906 0.000389529 
0.0332655 0.00998034 0.0139121 0.0923934 0.0353918 0.0825927 0.0449842 0.0678315 0.070528 
0.136564 0.0815003 0.186241 0.13282 0.156836 0.322479 0.351867 0.503349 0.454335 
0.401569 
METADATA
INFORMATION 0

VertexId 1 64 int
382687 415262 455967 448030 430686 439006 431837 299872 299678 
250397 275168 316636 333021 315870 347998 364446 504539 512668 
512542 4444 28957 45216 69599 209055 233821 3615 44638 
94110 167838 184222 233248 216992 387234 428383 395419 420190 
520676 520483 2210 149666 2203 141467 1886 245873 332590 
283684 291876 126756 126757 118617 110359 291353 283223 512546 
496227 4640 4705 414360 422490 423135 414880 339614 479392 
143198 
METADATA
INFORMATION 0

RegionSize 1 64 int
175 66 38 1 7 715 9 25 48 
51 65 31 21 21 13 68 4 73 
12 35 18 57 3 15 183 63 994 
23 4 484 5 741 470 109 590 31 
11 1136 83 3604 97 43 6736 132004 100151 
239944 0 15 9172 23 3322 5 9207 14 
2557 21 43 6 3604 11 994 682 1016 
272 
METADATA
INFORMATION 0

RegionSpan 1 64 int
0 0 0 0 0 0 0 0 0 
0 0 0 0 0 0 0 0 0 
0 0 0 0 0 0 0 0 0 
0 0 0 0 0 0 0 0 0 
0 0 0 0 0 0 0 1 0 
1 0 0 0 0 0 0 0 0 
0 0 0 0 0 0 0 0 0 
0 
METADATA
INFORMATION 0

