# vtk DataFile Version 4.2
vtk output
ASCII
DATASET UNSTRUCTURED_GRID
POINTS 84 float
0.46875 1.375 0.703125 0.484375 1.42188 0.71875 0.484375 1.46875 0.71875 
0.5 1.375 0.6875 0.484375 1.375 0.671875 0.484375 1.35938 0.859375 
0.453125 1.39062 0.8125 0.46875 1.17188 0.8125 0.46875 1.20312 0.828125 
0.453125 1.45312 0.8125 0.484375 1.1875 0.859375 0.484375 1.25 0.859375 
0.453125 1.28125 0.78125 0.453125 1.32812 0.78125 0.453125 1.21875 0.703125 
0.46875 1.21875 0.71875 0.5 1.21875 0.5625 0.484375 1.20312 0.5625 
0.453125 1.15625 0.484375 0.46875 1.09375 0.4375 0.46875 1.15625 0.578125 
0.46875 0.96875 0.65625 0.453125 1.0625 0.671875 0.4375 1.32812 0.59375 
0.453125 1.29688 0.625 0.53125 1.28125 0.578125 0.515625 1.28125 0.578125 
0.453125 1.14062 0.96875 0.4375 1.17188 0.953125 0.4375 1.09375 0 
0.453125 1.0625 0.046875 0.421875 1.1875 0.953125 0.515625 1.09375 0.921875 
0.515625 1.07812 0.90625 0.5 1.03125 0.09375 0.484375 0.984375 0.125 
0.484375 1.04688 0.390625 0.515625 1.09375 0.53125 0.515625 1.14062 0.53125 
0.484375 0.890625 0 0.46875 0.90625 0.0625 0.46875 0.96875 0.171875 
0.46875 0.96875 0.1875 0.46875 0.96875 0.234375 0.453125 0.828125 0.390625 
0.46875 0.859375 0.390625 0.53125 0.53125 0.734375 0.484375 0.578125 0.6875 
0.421875 0.53125 0.75 0.421875 0.53125 0.265625 0.5625 1.125 0.984375 
0.53125 1.07812 0.984375 0.53125 0.53125 0 0.53125 0.53125 0.28125 
0.421875 0.53125 0 0.46875 0.453125 0 0.75 0.03125 0.5 
0.6875 1.23438 0.890625 0.5625 0.953125 0.25 0.59375 0.9375 0.25 
0.359375 1.15625 0.890625 0.328125 1.14062 0.9375 0.375 0.96875 0.234375 
0.359375 0.96875 0.234375 0.515625 1.14062 0.984375 0.578125 1.14062 0.9375 
0.5 1.14062 0 0.484375 1.14062 0 0.40625 1.04688 0.046875 
0.40625 1.03125 0.03125 0.484375 1.15625 0 0.375 1.1875 0.78125 
0.421875 1.15625 0.828125 0.515625 1.14062 0.46875 0.53125 1.14062 0.484375 
0.484375 1.32812 0.796875 0.5 1.32812 0.765625 0.484375 0.953125 0.59375 
0.5 1.14062 0.953125 0.484375 1.09375 0.515625 0.46875 0.578125 0.796875 
0.5 1.17188 0.015625 0.46875 1.32812 0.765625 0.46875 0.96875 0.265625 

METADATA
INFORMATION 2
NAME L2_NORM_RANGE LOCATION vtkDataArray
DATA 2 0.651958 1.72541 
NAME L2_NORM_FINITE_RANGE LOCATION vtkDataArray
DATA 2 0.651958 1.72541 

CELL_TYPES 0

POINT_DATA 84
SCALARS CriticalType int
LOOKUP_TABLE default
3 2 3 3 2 3 2 3 2 
3 3 2 3 2 3 2 3 2 
3 2 3 3 2 3 2 3 2 
3 2 3 2 3 3 2 3 2 
3 3 2 3 2 3 2 3 3 
2 3 2 3 2 3 2 3 2 
3 0 1 0 0 1 0 1 0 
1 0 1 0 1 0 1 0 0 
1 0 1 0 1 2 2 2 2 
1 2 2 
METADATA
INFORMATION 0

FIELD FieldData 5
NodeId 1 84 int
0 1 2 3 4 5 6 7 8 
9 10 11 12 13 14 15 16 17 
18 19 20 21 22 23 24 25 26 
27 28 29 30 31 32 33 34 35 
36 37 38 39 40 41 42 43 44 
45 46 47 48 49 50 51 52 53 
54 55 56 57 58 59 60 61 62 
63 64 65 66 67 68 69 70 71 
72 73 74 75 76 77 78 79 80 
81 82 83 
METADATA
INFORMATION 0

Scalar 1 84 float
0.703265 0.669238 0.690983 0.660344 0.632578 0.656768 0.600972 0.640802 0.578541 
0.623608 0.617531 0.584789 0.616886 0.594671 0.598014 0.575408 0.593516 0.538309 
0.574371 0.441835 0.566864 0.554186 0.530992 0.542121 0.508006 0.529637 0.50497 
0.52704 0.489022 0.521244 0.392006 0.513023 0.49731 0.454495 0.494494 0.413265 
0.49019 0.474155 0.447101 0.467286 0.381121 0.448975 0.413874 0.437299 0.369937 
0.339155 0.272927 0.188578 0.272584 0.18771 0.235061 0.189834 0.23387 0.186479 
0.233755 0 0.0499048 0.00044183 0.0281826 0.0911209 0.0448308 0.0674419 0.0457718 
0.0813099 0.0466345 0.130922 0.0531374 0.110863 0.0866901 0.111392 0.0876414 0.136606 
0.162564 0.156679 0.182674 0.312152 0.370146 0.505873 0.452825 0.43941 0.186982 
0.142052 0.59427 0.401567 
METADATA
INFORMATION 0

VertexId 1 84 int
374302 382687 382879 366112 357919 456159 431709 430814 439134 
431965 455455 455711 414877 415069 373661 381854 299936 299871 
258717 233886 307870 348062 356637 316764 333021 308386 308385 
512605 504540 4508 28957 504603 487841 479585 53408 69599 
209119 283041 283233 3679 36510 94110 102302 126878 208221 
208350 387234 362847 395419 141467 520740 520546 2210 149666 
2203 1886 262320 472044 135012 134950 471703 496213 126872 
126871 520801 496229 4704 4703 28890 20634 4767 414488 
438939 250465 258658 423263 406880 315231 504416 274847 420190 
13024 406878 143262 
METADATA
INFORMATION 0

RegionSize 1 84 int
15 42 4 12 94 44 17 34 24 
6 13 42 4 0 3 426 8 65 
69 7 7 9 292 13 31 5 1049 
14 47 48 408 2 10 38 47 31 
37 6 219 60 474 11 2 7 3 
9607 470 127 584 11 15 77 82 457 
90 6544 128728 341629 14 5471 3 9302 25 
3465 21 1602 5 8 14 3542 0 8 
2522 4 457 16 474 14 135 1188 54 
2622 53 321 
METADATA
INFORMATION 0

RegionSpan 1 84 int
0 0 0 0 0 0 0 0 0 
0 0 0 0 0 0 0 0 0 
0 0 0 0 0 0 0 0 0 
0 0 0 0 0 0 0 0 0 
0 0 0 0 0 0 0 0 0 
0 0 0 0 0 0 0 0 0 
0 0 1 1 0 0 0 0 0 
0 0 0 0 0 0 0 0 0 
0 0 0 0 0 0 0 0 0 
0 0 0 
METADATA
INFORMATION 0

