# vtk DataFile Version 4.2
vtk output
ASCII
DATASET UNSTRUCTURED_GRID
POINTS 112 float
0.453125 1.39062 0.78125 0.46875 1.20312 0.734375 0.5 1.21875 0.6875 
0.53125 1.3125 0.703125 0.515625 1.4375 0.703125 0.453125 1.32812 0.578125 
0.453125 1.26562 0.59375 0.453125 1.20312 0.625 0.484375 1.10938 0.53125 
0.46875 1.21875 0.5625 0.453125 1.14062 0 0.4375 1.04688 0.015625 
0.484375 1.03125 0.921875 0.46875 0.96875 0.90625 0.46875 1.20312 0.890625 
0.46875 1.17188 0.890625 0.484375 0.96875 0.875 0.5 1.10938 0.859375 
0.46875 0.9375 0.640625 0.46875 0.96875 0.59375 0.421875 1.51562 0.671875 
0.4375 1.48438 0.703125 0.484375 1.01562 0.59375 0.46875 1.07812 0.609375 
0.4375 1.20312 0.59375 0.453125 1.17188 0.625 0.453125 1.09375 0.421875 
0.484375 1.10938 0.4375 0.484375 1.14062 0.875 0.453125 1.03125 0.640625 
0.46875 1.125 0.984375 0.453125 1.0625 0.984375 0.5 1.04688 0.09375 
0.484375 1 0.140625 0.546875 1.28125 0.546875 0.546875 1.29688 0.5625 
0.46875 0.96875 0.984375 0.484375 0.875 0.953125 0.484375 1.03125 0.390625 
0.46875 1.03125 0.40625 0.46875 0.953125 0.46875 0.46875 0.953125 0.484375 
0.484375 0.96875 0.015625 0.484375 0.96875 0.046875 0.484375 1 0.328125 
0.46875 1.03125 0.34375 0.484375 0.921875 0.046875 0.484375 1 0.171875 
0.546875 1.375 0.578125 0.53125 1.375 0.59375 0.53125 0.53125 0.765625 
0.484375 0.578125 0.75 0.421875 0.53125 0.703125 0.46875 0.578125 0.703125 
0.421875 0.53125 0 0.421875 0.53125 0.21875 0.53125 0.53125 0 
0.53125 0.53125 0.234375 0.46875 0.453125 0 0.734375 0.125 0.484375 
0.75 1.20312 0.84375 0.515625 1.39062 0.9375 0.625 1.1875 0.5625 
0.625 1.21875 0.53125 0.453125 1.34375 0.546875 0.453125 1.35938 0.53125 
0.484375 1.39062 0.9375 0.4375 1.21875 0.921875 0.453125 1.20312 0.9375 
0.640625 1.14062 0.765625 0.65625 1.1875 0.78125 0.390625 1.10938 0.546875 
0.359375 1.09375 0.546875 0.609375 1.23438 0.53125 0.625 1.23438 0.515625 
0.359375 1.125 0.921875 0.328125 1.125 0.921875 0.625 1.20312 0.734375 
0.640625 1.20312 0.75 0.453125 1.21875 0.9375 0.609375 1.17188 0.578125 
0.609375 1.17188 0.59375 0.390625 0.96875 0.25 0.359375 0.96875 0.265625 
0.5625 0.96875 0.28125 0.578125 0.96875 0.203125 0.53125 1.25 0.640625 
0.515625 1.26562 0.625 0.515625 1.28125 0.625 0.53125 1.10938 0.03125 
0.5625 1.09375 0 0.59375 1.23438 0.671875 0.609375 1.20312 0.703125 
0.578125 1.26562 0.65625 0.59375 1.26562 0.671875 0.421875 1.0625 0.078125 
0.421875 1.01562 0.09375 0.5 1.32812 0.625 0.5 1.32812 0.609375 
0.515625 1.09375 0.40625 0.515625 1.07812 0.40625 0.375 1.29688 0.765625 
0.390625 1.23438 0.75 0.5 1.25 0.8125 0.484375 1.29688 0.8125 
0.46875 1.26562 0.640625 0.4375 1.14062 0.609375 0.453125 1.0625 0.046875 
0.390625 1.15625 0.890625 0.53125 1.23438 0.640625 0.46875 0.921875 0.859375 
0.46875 0.984375 0.265625 
METADATA
INFORMATION 2
NAME L2_NORM_RANGE LOCATION vtkDataArray
DATA 2 0.651958 1.7546 
NAME L2_NORM_FINITE_RANGE LOCATION vtkDataArray
DATA 2 0.651958 1.7546 

CELL_TYPES 0

POINT_DATA 112
SCALARS CriticalType int
LOOKUP_TABLE default
3 2 3 2 3 3 2 3 3 
2 3 2 3 2 3 2 3 2 
3 2 3 2 3 2 3 2 3 
2 3 3 3 2 3 2 3 2 
3 2 3 2 3 2 3 2 3 
2 3 3 3 2 3 2 3 2 
3 2 3 2 0 1 0 1 0 
1 0 1 0 0 1 0 1 0 
1 0 1 0 1 0 1 0 0 
1 0 1 0 1 0 1 0 0 
1 0 1 0 1 0 1 0 1 
0 1 0 1 0 1 2 2 2 
1 1 2 2 
METADATA
INFORMATION 0

FIELD FieldData 5
NodeId 1 112 int
0 1 2 3 4 5 6 7 8 
9 10 11 12 13 14 15 16 17 
18 19 20 21 22 23 24 25 26 
27 28 29 30 31 32 33 34 35 
36 37 38 39 40 41 42 43 44 
45 46 47 48 49 50 51 52 53 
54 55 56 57 58 59 60 61 62 
63 64 65 66 67 68 69 70 71 
72 73 74 75 76 77 78 79 80 
81 82 83 84 85 86 87 88 89 
90 91 92 93 94 95 96 97 98 
99 100 101 102 103 104 105 106 107 
108 109 110 111 
METADATA
INFORMATION 0

Scalar 1 112 float
0.688487 0.513403 0.630457 0.567831 0.597948 0.589803 0.542299 0.57183 0.571478 
0.500362 0.555467 0.420928 0.554684 0.491757 0.554619 0.505333 0.553274 0.506546 
0.551576 0.492641 0.551562 0.481784 0.541598 0.506652 0.537609 0.505156 0.5367 
0.446376 0.534994 0.530506 0.506732 0.421951 0.502429 0.428332 0.494465 0.466027 
0.48799 0.447863 0.460619 0.436036 0.45954 0.42963 0.45914 0.421961 0.459103 
0.416954 0.456573 0.451721 0.373192 0.336852 0.27249 0.190788 0.272328 0.191735 
0.234156 0.183942 0.233957 0.189426 0 0.049906 0.000629522 0.0395944 0.0105214 
0.0491467 0.0147009 0.0430569 0.0171181 0.0172247 0.064498 0.0194325 0.0446969 0.0211058 
0.0446728 0.0213768 0.0466348 0.0225134 0.0548787 0.0227951 0.0483329 0.0368856 0.0491705 
0.070702 0.0507242 0.0788162 0.0617182 0.0929259 0.0742998 0.11017 0.0882929 0.0886775 
0.120222 0.0986047 0.135538 0.112616 0.140777 0.1276 0.155953 0.155102 0.201657 
0.210196 0.23576 0.219825 0.276309 0.22075 0.243025 0.541767 0.505148 0.421196 
0.0796006 0.13516 0.497102 0.409555 
METADATA
INFORMATION 0

VertexId 1 112 int
415325 389982 365472 374050 374561 308573 316509 332637 283103 
299934 4701 12508 487583 479134 471902 471774 462751 455136 
339742 315294 358491 374748 315487 323934 316252 332509 225693 
233951 463455 340125 520734 520477 53472 77855 292003 300259 
520094 503327 209055 217246 249694 257886 12191 28575 176159 
184478 28383 94239 308771 316962 403618 395615 370843 371038 
2203 116891 2210 125090 1886 254511 447344 497249 299816 
283560 292253 284125 497247 488348 496477 406121 414506 291289 
291223 283623 275432 487959 487957 389992 398185 496541 307943 
316135 135065 143255 151460 110501 341026 332897 332961 20962 
4516 357350 373607 349285 357478 45339 53339 333152 324960 
217505 217441 406744 398297 431136 431327 341086 324188 28957 
471705 340962 454366 143326 
METADATA
INFORMATION 0

RegionSize 1 112 int
457 111 37 92 20 7 0 7 51 
54 58 57 8 203 30 19 38 5 
40 27 15 380 7 0 7 0 37 
305 8 16 36 156 47 20 3 479 
14 46 5 195 9 240 17 1 20 
247 6 6 8 4027 446 128 542 85 
96 3618 66 653 7042 100882 156027 45401 4 
35221 2 19786 3 8 6 16 28167 12 
295 0 33482 11 31318 11 19674 0 0 
5321 8 450 10 7125 1 3 1 12 
2628 8 778 2 2105 7 3618 0 2545 
1 492 15 4027 5 2300 168 63 0 
5073 55 91 3490 
METADATA
INFORMATION 0

RegionSpan 1 112 int
0 0 0 0 0 0 0 0 0 
0 0 0 0 0 0 0 0 0 
0 0 0 0 0 0 0 0 0 
0 0 0 0 0 0 0 0 0 
0 0 0 0 0 0 0 0 0 
0 0 0 0 0 0 0 0 0 
0 0 0 0 0 1 0 0 0 
1 0 0 0 0 0 0 0 0 
0 0 0 0 0 0 0 0 0 
0 0 0 0 0 0 0 0 0 
0 0 0 0 0 0 0 0 0 
0 0 0 0 0 0 0 0 0 
0 0 0 0 
METADATA
INFORMATION 0

