# vtk DataFile Version 4.2
vtk output
ASCII
DATASET UNSTRUCTURED_GRID
POINTS 42 float
0.484375 1.09375 0.6875 0.46875 1.0625 0.75 0.46875 1.14062 0.765625 
0.46875 1.0625 0.890625 0.46875 1.0625 0.859375 0.46875 1.04688 0.84375 
0.5 1.0625 0.625 0.46875 1.0625 0.59375 0.484375 1.03125 0.546875 
0.484375 1.01562 0.96875 0.484375 1.0625 0.921875 0.484375 0.921875 0.640625 
0.484375 0.953125 0.65625 0.484375 1 0 0.46875 0.859375 0.046875 
0.46875 0.828125 0 0.421875 1.15625 0.734375 0.4375 1.15625 0.71875 
0.421875 0.53125 0.703125 0.46875 0.578125 0.734375 0.53125 0.53125 0.703125 
0.53125 0.53125 0.296875 0.53125 0.53125 0 0.421875 0.53125 0.03125 
0.421875 0.53125 0.21875 0.46875 0.453125 0 0.640625 0.046875 0.1875 
0.71875 1.01562 0.75 0.46875 1.1875 0.234375 0.265625 1.04688 0.921875 
0.3125 0.984375 0.734375 0.546875 0.84375 0.25 0.5625 0.859375 0.234375 
0.34375 0.96875 0.734375 0.59375 1.03125 0.890625 0.578125 1.03125 0.859375 
0.40625 0.84375 0.234375 0.390625 0.859375 0.203125 0.46875 1.01562 0.796875 
0.5 1.0625 0.65625 0.484375 0.84375 0.203125 0.484375 0.578125 0.78125 

METADATA
INFORMATION 2
NAME L2_NORM_RANGE LOCATION vtkDataArray
DATA 2 0.651958 1.48774 
NAME L2_NORM_FINITE_RANGE LOCATION vtkDataArray
DATA 2 0.651958 1.48774 

CELL_TYPES 0

POINT_DATA 42
SCALARS CriticalType int
LOOKUP_TABLE default
3 2 3 3 2 3 3 2 3 
3 2 3 2 3 2 3 3 2 
3 2 3 2 3 3 2 0 1 
0 1 0 1 0 1 0 0 1 
0 1 2 2 2 2 
METADATA
INFORMATION 0

FIELD FieldData 5
NodeId 1 42 int
0 1 2 3 4 5 6 7 8 
9 10 11 12 13 14 15 16 17 
18 19 20 21 22 23 24 25 26 
27 28 29 30 31 32 33 34 35 
36 37 38 39 40 41 
METADATA
INFORMATION 0

Scalar 1 42 float
0.649288 0.612181 0.635441 0.628926 0.563526 0.609708 0.600866 0.557582 0.595531 
0.591192 0.559192 0.546486 0.523895 0.523236 0.394763 0.425077 0.41769 0.395335 
0.272497 0.189312 0.272474 0.188139 0.232642 0.23226 0.187769 0 0.0499076 
0.00150417 0.0421927 0.00219177 0.040549 0.00732872 0.0606571 0.01619 0.01661 0.0589451 
0.0253414 0.0608774 0.561115 0.539603 0.390242 0.188071 
METADATA
INFORMATION 0

VertexId 1 42 int
364959 397598 406110 471326 454942 446686 332064 315678 290975 
512095 487711 339679 347999 4127 28126 3422 389787 381596 
370843 387422 370850 157858 2210 18587 116891 1886 98537 
397422 127774 487633 389076 134563 126436 389014 471206 454821 
126362 110041 421982 348448 109983 411999 
METADATA
INFORMATION 0

RegionSize 1 42 int
34 106 13 19 10 13 20 21 15 
15 113 3 1807 142 11 14 3 137 
564 94 477 0 76 83 32076 6430 157953 
68218 181202 54210 8641 7 379 9 11 3313 
10 32076 8 122 7845 22 
METADATA
INFORMATION 0

RegionSpan 1 42 int
0 0 0 0 0 0 0 0 0 
0 0 0 0 0 0 0 0 0 
0 0 0 0 0 0 0 0 1 
0 1 0 0 0 0 0 0 0 
0 0 0 0 0 0 
METADATA
INFORMATION 0

