# vtk DataFile Version 4.2
vtk output
ASCII
DATASET UNSTRUCTURED_GRID
POINTS 48 float
0.46875 1.10938 0.859375 0.453125 1.125 0.828125 0.46875 1.15625 0.8125 
0.484375 1.20312 0.75 0.46875 1.17188 0.71875 0.46875 1.1875 0.703125 
0.484375 1.15625 0.671875 0.46875 1 0.765625 0.46875 1.04688 0.796875 
0.484375 1.0625 0.953125 0.484375 1.07812 0.9375 0.484375 1.21875 0.578125 
0.484375 1.1875 0.609375 0.453125 1.03125 0 0.46875 0.875 0.25 
0.46875 0.890625 0.828125 0.46875 0.90625 0.8125 0.46875 0.84375 0.796875 
0.46875 0.890625 0.796875 0.484375 0.875 0.515625 0.46875 0.875 0.53125 
0.484375 0.890625 0 0.46875 0.9375 0 0.53125 0.53125 0.75 
0.484375 0.578125 0.75 0.421875 0.53125 0.75 0.46875 0.578125 0.765625 
0.421875 0.53125 0.015625 0.421875 0.53125 0.234375 0.53125 0.53125 0 
0.53125 0.53125 0.21875 0.46875 0.453125 0 0.71875 0.21875 0.1875 
0.703125 1.07812 0.90625 0.453125 1.20312 0.53125 0.3125 0.890625 0.234375 
0.59375 1.125 0.84375 0.59375 1.09375 0.84375 0.5625 1.15625 0.953125 
0.5625 1.15625 0.96875 0.359375 1.17188 0.609375 0.34375 1.14062 0.609375 
0.609375 1.01562 0.6875 0.625 1.04688 0.703125 0.40625 0.875 0.21875 
0.390625 0.875 0.203125 0.546875 0.875 0.25 0.578125 0.875 0.234375 

METADATA
INFORMATION 2
NAME L2_NORM_RANGE LOCATION vtkDataArray
DATA 2 0.651958 1.60991 
NAME L2_NORM_FINITE_RANGE LOCATION vtkDataArray
DATA 2 0.651958 1.60991 

CELL_TYPES 0

POINT_DATA 48
SCALARS CriticalType int
LOOKUP_TABLE default
3 2 3 2 3 2 3 3 2 
3 2 3 2 3 2 3 2 3 
2 3 2 3 2 3 2 3 2 
3 2 3 2 0 1 0 1 0 
0 1 0 1 0 1 0 1 0 
1 0 1 
METADATA
INFORMATION 0

FIELD FieldData 5
NodeId 1 48 int
0 1 2 3 4 5 6 7 8 
9 10 11 12 13 14 15 16 17 
18 19 20 21 22 23 24 25 26 
27 28 29 30 31 32 33 34 35 
36 37 38 39 40 41 42 43 44 
45 46 47 
METADATA
INFORMATION 0

Scalar 1 48 float
0.651866 0.564942 0.643283 0.594739 0.637227 0.609021 0.635691 0.574126 0.544171 
0.573143 0.528579 0.558785 0.532745 0.551594 0.395015 0.52719 0.496871 0.506572 
0.483913 0.481316 0.448019 0.433828 0.394551 0.273589 0.189466 0.271858 0.191193 
0.236507 0.186972 0.234602 0.184859 0 0.0499102 0.00104709 0.0338315 0.00120838 
0.00843948 0.0346194 0.0121561 0.0450821 0.019968 0.0493968 0.0232387 0.0452989 0.0265897 
0.0690276 0.0378975 0.0699226 
METADATA
INFORMATION 0

VertexId 1 48 int
455134 438813 430750 398175 381662 373534 357023 405534 422110 
504095 495967 308127 324383 4253 134686 437854 429726 421278 
421470 273951 282142 3679 3870 395426 395615 395419 403806 
10395 125083 2210 116898 1886 99246 479597 283485 126548 
447014 446886 504484 512676 324311 324182 364647 372968 118298 
110105 134691 126501 
METADATA
INFORMATION 0

RegionSize 1 48 int
32 124 28 118 8 39 27 12 107 
24 366 7 35 165 10 8 207 11 
612 3 1060 18 8845 472 187 531 148 
83 222 78 23224 6671 160543 40872 4738 37135 
16 96764 0 2783 2 40775 19 96390 7 
703 11 23224 
METADATA
INFORMATION 0

RegionSpan 1 48 int
0 0 0 0 0 0 0 0 0 
0 0 0 0 0 0 0 0 0 
0 0 0 0 0 0 0 0 0 
0 0 0 0 0 0 0 0 0 
0 0 0 0 0 1 0 0 0 
0 0 0 
METADATA
INFORMATION 0

