# vtk DataFile Version 4.2
vtk output
ASCII
DATASET UNSTRUCTURED_GRID
POINTS 68 float
0.46875 1.26562 0.8125 0.46875 1.0625 0.78125 0.5 1.23438 0.6875 
0.484375 1.23438 0.71875 0.46875 1.125 0.546875 0.5 1.23438 0.65625 
0.46875 1 0.796875 0.46875 1.03125 0.71875 0.484375 1.03125 0.703125 
0.46875 1.25 0.890625 0.46875 1.23438 0.890625 0.46875 1.07812 0.90625 
0.46875 1.0625 0.90625 0.453125 1.04688 0.015625 0.46875 1.01562 0.046875 
0.484375 1.04688 0.90625 0.53125 1.21875 0.90625 0.5 1.15625 0.90625 
0.453125 1 0.625 0.46875 1.0625 0.65625 0.484375 0.96875 0.53125 
0.484375 1 0.515625 0.46875 0.9375 0.59375 0.46875 0.9375 0.5625 
0.484375 0.90625 0.921875 0.46875 0.875 0.90625 0.46875 1.0625 0.984375 
0.484375 1.0625 0.984375 0.46875 1 0.421875 0.484375 1.01562 0.4375 
0.484375 0.96875 0.078125 0.484375 0.96875 0.390625 0.46875 0.96875 0.40625 
0.46875 0.859375 0.96875 0.46875 0.890625 0.953125 0.46875 0.921875 0.015625 
0.453125 0.9375 0.015625 0.484375 0.84375 0.015625 0.46875 0.890625 0.015625 
0.53125 0.53125 0.75 0.484375 0.578125 0.75 0.421875 0.53125 0.71875 
0.46875 0.578125 0.703125 0.421875 0.53125 0 0.421875 0.53125 0.21875 
0.53125 0.53125 0 0.53125 0.53125 0.296875 0.46875 0.453125 0 
0.140625 0.0625 0.484375 0.703125 1.125 0.90625 0.34375 1.14062 0.578125 
0.484375 1.28125 0.546875 0.5625 1.26562 0.546875 0.625 1.0625 0.765625 
0.625 1.07812 0.734375 0.359375 1.14062 0.609375 0.390625 1.23438 0.90625 
0.375 1.23438 0.890625 0.59375 1.10938 0.546875 0.609375 1.125 0.546875 
0.40625 1.25 0.921875 0.4375 1.25 0.9375 0.390625 0.90625 0.25 
0.375 0.90625 0.25 0.5 1.20312 0.59375 0.515625 1.20312 0.59375 
0.5 1.21875 0.90625 0.484375 0.921875 0.21875 
METADATA
INFORMATION 2
NAME L2_NORM_RANGE LOCATION vtkDataArray
DATA 2 0.508233 1.62259 
NAME L2_NORM_FINITE_RANGE LOCATION vtkDataArray
DATA 2 0.508233 1.62259 

CELL_TYPES 0

POINT_DATA 68
SCALARS CriticalType int
LOOKUP_TABLE default
3 2 3 2 3 2 3 3 2 
3 2 3 2 3 2 3 3 2 
3 2 3 2 3 2 3 2 3 
2 3 2 3 3 2 3 2 3 
2 3 2 3 2 3 2 3 2 
3 2 0 1 0 1 0 1 0 
1 0 0 1 0 1 0 1 0 
1 0 1 2 2 
METADATA
INFORMATION 0

FIELD FieldData 5
NodeId 1 68 int
0 1 2 3 4 5 6 7 8 
9 10 11 12 13 14 15 16 17 
18 19 20 21 22 23 24 25 26 
27 28 29 30 31 32 33 34 35 
36 37 38 39 40 41 42 43 44 
45 46 47 48 49 50 51 52 53 
54 55 56 57 58 59 60 61 62 
63 64 65 66 67 
METADATA
INFORMATION 0

Scalar 1 68 float
0.672239 0.578703 0.620497 0.561719 0.609597 0.552526 0.600683 0.578716 0.533926 
0.56197 0.524027 0.553686 0.523477 0.551581 0.446926 0.55129 0.54576 0.510851 
0.53933 0.499076 0.525365 0.479517 0.521213 0.477472 0.507651 0.458018 0.505731 
0.473838 0.498623 0.464572 0.485991 0.479426 0.452532 0.448008 0.425901 0.429754 
0.406071 0.425119 0.39704 0.27293 0.190629 0.272849 0.190696 0.233913 0.184668 
0.233663 0.189145 0 0.0499104 0.000380061 0.0384194 0.00681726 0.0428754 0.00945365 
0.0453921 0.0141074 0.0184639 0.0532854 0.0194781 0.0486597 0.0312459 0.0536088 0.0334551 
0.0667275 0.16809 0.194554 0.505454 0.402313 
METADATA
INFORMATION 0

VertexId 1 68 int
431198 413982 365536 381919 291358 349152 421918 381086 372895 
472094 472030 479582 479518 12509 28766 479455 480162 479904 
331805 348446 282527 274463 315166 298782 487071 478750 520478 
520479 225310 233567 44959 208799 216990 511454 503390 11998 
12061 11679 11870 395426 395615 379035 371038 2203 116891 
2210 157858 1886 254217 479789 307798 291999 291940 405800 
389480 324183 480217 472024 291302 291367 488474 496668 134809 
134808 316256 316257 480160 118495 
METADATA
INFORMATION 0

RegionSize 1 68 int
144 54 36 65 61 149 5 11 91 
0 194 7 15 49 75 2 10 9 
14 290 10 52 7 64 10 108 5 
165 11 134 18 1 568 9 627 5 
12 11 9842 446 103 550 3 95 27387 
74 447 7023 115465 117550 48276 13 31376 13 
62072 5 2 2111 4 66115 1 31620 8 
27387 0 9842 92 173 
METADATA
INFORMATION 0

RegionSpan 1 68 int
0 0 0 0 0 0 0 0 0 
0 0 0 0 0 0 0 0 0 
0 0 0 0 0 0 0 0 0 
0 0 0 0 0 0 0 0 0 
0 0 0 0 0 0 0 0 0 
0 0 0 1 0 0 0 0 0 
0 0 0 0 0 1 0 0 0 
0 0 0 0 0 
METADATA
INFORMATION 0

