# vtk DataFile Version 4.2
vtk output
ASCII
DATASET UNSTRUCTURED_GRID
POINTS 40 float
0.484375 1.09375 0.71875 0.484375 1.0625 0.734375 0.46875 1.0625 0.90625 
0.453125 1.09375 0.828125 0.5 1.10938 0.796875 0.46875 1.09375 0.65625 
0.46875 1.125 0.625 0.46875 1.0625 0.609375 0.484375 0.96875 0.015625 
0.46875 0.84375 0.21875 0.421875 0.53125 0.734375 0.46875 0.578125 0.734375 
0.53125 0.53125 0.71875 0.53125 0.53125 0.21875 0.421875 0.53125 0 
0.421875 0.53125 0.28125 0.34375 1.10938 0.703125 0.359375 1.09375 0.703125 
0.53125 0.53125 0 0.46875 0.453125 0 0.234375 0.09375 0.15625 
0.265625 1.04688 0.90625 0.359375 1.07812 0.609375 0.703125 1.03125 0.625 
0.640625 1.04688 0.8125 0.375 1.0625 0.90625 0.359375 1.07812 0.9375 
0.359375 1.09375 0.59375 0.609375 1.07812 0.828125 0.546875 0.84375 0.234375 
0.5625 0.84375 0.25 0.359375 1.01562 0.5625 0.34375 1.03125 0.53125 
0.40625 1.14062 0.5625 0.390625 1.14062 0.5625 0.40625 0.84375 0.25 
0.390625 0.859375 0.28125 0.453125 0.984375 0.6875 0.484375 0.578125 0.75 
0.484375 1.20312 0.1875 
METADATA
INFORMATION 2
NAME L2_NORM_RANGE LOCATION vtkDataArray
DATA 2 0.296875 1.48979 
NAME L2_NORM_FINITE_RANGE LOCATION vtkDataArray
DATA 2 0.296875 1.48979 

CELL_TYPES 0

POINT_DATA 40
SCALARS CriticalType int
LOOKUP_TABLE default
3 2 3 2 3 3 2 3 3 
2 3 2 3 2 3 2 3 2 
3 0 1 0 1 0 1 0 1 
0 0 0 1 0 1 0 1 0 
1 2 2 1 
METADATA
INFORMATION 0

FIELD FieldData 5
NodeId 1 40 int
0 1 2 3 4 5 6 7 8 
9 10 11 12 13 14 15 16 17 
18 19 20 21 22 23 24 25 26 
27 28 29 30 31 32 33 34 35 
36 37 38 39 
METADATA
INFORMATION 0

Scalar 1 40 float
0.640721 0.58155 0.620858 0.546454 0.618701 0.603459 0.552892 0.599359 0.528675 
0.389854 0.272668 0.190536 0.272548 0.190294 0.240108 0.186962 0.235418 0.207291 
0.233504 0 0.0499014 0.000793316 0.0319399 0.00122032 0.03608 0.00719828 0.0479085 
0.00947143 0.0138759 0.0181419 0.0589379 0.023102 0.0505228 0.026986 0.0525106 0.0336073 
0.0756198 0.525009 0.188462 0.0425822 
METADATA
INFORMATION 0

VertexId 1 40 int
381343 389407 479518 438685 422368 348574 332318 323870 12191 
118174 387227 387422 379042 116898 2203 149659 373206 373143 
2210 1886 82319 479441 323927 331949 430313 479512 495959 
315799 438631 126371 134564 299095 282774 299610 299609 134554 
151001 364509 395615 103263 
METADATA
INFORMATION 0

RegionSize 1 40 int
17 99 71 98 33 25 64 21 186 
7002 545 123 459 26 96 18591 6 785 
61 6455 81337 27238 37257 43303 27448 5 101534 
1 13 12 16838 10 48396 3 29444 13 
18591 2078 116 74439 
METADATA
INFORMATION 0

RegionSpan 1 40 int
0 0 0 0 0 0 0 0 0 
0 0 0 0 0 0 0 0 0 
0 0 1 0 0 0 0 0 1 
0 0 0 0 0 0 0 0 0 
0 0 0 0 
METADATA
INFORMATION 0

