# vtk DataFile Version 4.2
vtk output
ASCII
DATASET UNSTRUCTURED_GRID
POINTS 46 float
0.484375 1.17188 0.765625 0.484375 1.15625 0.734375 0.484375 1.20312 0.71875 
0.46875 1.1875 0.828125 0.46875 1.20312 0.796875 0.484375 1.125 0.640625 
0.46875 1.14062 0.65625 0.5 1.14062 0.890625 0.484375 1.14062 0.875 
0.5 1.07812 0.53125 0.46875 1.07812 0.546875 0.453125 1.07812 0.578125 
0.5 1.04688 0.9375 0.5 1.03125 0.90625 0.484375 0.953125 0.609375 
0.484375 1.01562 0.625 0.46875 1.01562 0.46875 0.484375 1.01562 0.5 
0.46875 0.859375 0.65625 0.46875 0.890625 0.671875 0.453125 1 0.015625 
0.46875 0.875 0.265625 0.53125 0.53125 0.734375 0.484375 0.578125 0.8125 
0.421875 0.53125 0.71875 0.46875 0.578125 0.796875 0.421875 0.53125 0 
0.421875 0.53125 0.265625 0.53125 0.53125 0 0.53125 0.53125 0.28125 
0.46875 0.453125 0 0.484375 0.125 0.390625 0.71875 1.0625 0.71875 
0.515625 1.1875 0.984375 0.25 1.09375 0.890625 0.625 1.0625 0.703125 
0.640625 1.0625 0.703125 0.40625 0.875 0.265625 0.375 0.875 0.1875 
0.546875 0.875 0.234375 0.578125 0.859375 0.25 0.375 1.0625 0.921875 
0.359375 1.0625 0.921875 0.5 1.0625 0 0.515625 1.07812 0 
0.453125 1.14062 0.59375 
METADATA
INFORMATION 2
NAME L2_NORM_RANGE LOCATION vtkDataArray
DATA 2 0.634691 1.62635 
NAME L2_NORM_FINITE_RANGE LOCATION vtkDataArray
DATA 2 0.634691 1.62635 

CELL_TYPES 0

POINT_DATA 46
SCALARS CriticalType int
LOOKUP_TABLE default
3 2 3 3 2 3 2 3 2 
3 2 3 3 2 3 2 3 2 
3 2 3 2 3 2 3 2 3 
2 3 2 0 1 0 1 0 0 
1 0 1 0 1 0 1 0 1 
2 
METADATA
INFORMATION 0

FIELD FieldData 5
NodeId 1 46 int
0 1 2 3 4 5 6 7 8 
9 10 11 12 13 14 15 16 17 
18 19 20 21 22 23 24 25 26 
27 28 29 30 31 32 33 34 35 
36 37 38 39 40 41 42 43 44 
45 
METADATA
INFORMATION 0

Scalar 1 46 float
0.668991 0.638455 0.664737 0.656648 0.586691 0.617715 0.579405 0.577696 0.545408 
0.570433 0.535118 0.560055 0.550174 0.521733 0.54426 0.519407 0.53478 0.498677 
0.507421 0.477649 0.504761 0.394911 0.272246 0.188924 0.271797 0.186613 0.233763 
0.184117 0.233491 0.18692 0 0.0499088 0.00064809 0.0322331 0.00176176 0.00396683 
0.0330345 0.0344581 0.0693095 0.037971 0.0686141 0.0524846 0.0761282 0.250138 0.3108 
0.527055 
METADATA
INFORMATION 0

VertexId 1 46 int
406239 389791 381791 439070 422750 340511 348766 471648 463455 
282976 291166 307549 495840 479392 323423 331871 249950 266335 
347614 355934 12317 142878 387234 428383 379035 420190 2203 
141467 2210 149666 1886 205343 381230 520993 471440 373032 
373033 142874 101912 126499 134629 487704 487703 4384 4449 
315997 
METADATA
INFORMATION 0

RegionSize 1 46 int
17 83 18 53 32 12 163 10 150 
13 9 11 16 20 5 248 10 287 
7 1620 156 3095 468 124 593 253 109 
18884 81 20 6100 158904 36438 4628 32778 25 
247945 13 4289 9 604 3 18884 9 3095 
52 
METADATA
INFORMATION 0

RegionSpan 1 46 int
0 0 0 0 0 0 0 0 0 
0 0 0 0 0 0 0 0 0 
0 0 0 0 0 0 0 0 0 
0 0 0 0 0 0 0 0 0 
1 0 0 0 0 0 0 0 0 
0 
METADATA
INFORMATION 0

