# vtk DataFile Version 4.2
vtk output
ASCII
DATASET UNSTRUCTURED_GRID
POINTS 54 float
0.484375 1.23438 0.765625 0.5 1.23438 0.71875 0.484375 1.20312 0.828125 
0.453125 1.25 0.796875 0.46875 1.25 0.703125 0.484375 1.14062 0.6875 
0.46875 1.17188 0.640625 0.484375 1.125 0.546875 0.46875 1.25 0.59375 
0.453125 1.26562 0.78125 0.46875 1.28125 0.78125 0.484375 0.96875 0.734375 
0.484375 1.01562 0.75 0.46875 0.96875 0.796875 0.484375 0.953125 0.78125 
0.46875 1.40625 0.734375 0.5 1.35938 0.734375 0.484375 1.07812 0 
0.484375 0.96875 0.078125 0.484375 1 0.890625 0.484375 1.0625 0.890625 
0.46875 0.96875 0.390625 0.484375 0.96875 0.390625 0.484375 0.96875 0.109375 
0.421875 0.53125 0.75 0.421875 0.53125 0.265625 0.53125 0.53125 0.75 
0.484375 0.578125 0.75 0.53125 0.53125 0.015625 0.53125 0.53125 0.203125 
0.421875 0.53125 0 0.46875 0.453125 0 0.34375 0.015625 0.234375 
0.265625 1.15625 0.9375 0.421875 1.20312 0 0.71875 1.14062 0.59375 
0.359375 1.125 0.640625 0.328125 1.15625 0.640625 0.59375 1.125 0.84375 
0.640625 1.15625 0.828125 0.328125 1.04688 0.734375 0.3125 1.07812 0.734375 
0.59375 1.20312 0.609375 0.609375 1.21875 0.578125 0.5625 0.90625 0.25 
0.578125 0.90625 0.265625 0.59375 1.125 0.5625 0.59375 1.14062 0.578125 
0.390625 0.90625 0.234375 0.375 0.90625 0.234375 0.4375 1.1875 0.890625 
0.4375 1.17188 0.890625 0.484375 0.90625 0.234375 0.46875 0.578125 0.765625 

METADATA
INFORMATION 2
NAME L2_NORM_RANGE LOCATION vtkDataArray
DATA 2 0.416341 1.65426 
NAME L2_NORM_FINITE_RANGE LOCATION vtkDataArray
DATA 2 0.416341 1.65426 

CELL_TYPES 0

POINT_DATA 54
SCALARS CriticalType int
LOOKUP_TABLE default
3 2 3 2 3 2 3 3 2 
3 2 3 2 3 2 3 2 3 
2 3 2 3 2 3 3 2 3 
2 3 2 3 0 1 0 1 0 
0 1 0 1 0 1 0 1 0 
1 0 1 0 1 0 1 2 2 

METADATA
INFORMATION 0

FIELD FieldData 5
NodeId 1 54 int
0 1 2 3 4 5 6 7 8 
9 10 11 12 13 14 15 16 17 
18 19 20 21 22 23 24 25 26 
27 28 29 30 31 32 33 34 35 
36 37 38 39 40 41 42 43 44 
45 46 47 48 49 50 51 52 53 

METADATA
INFORMATION 0

Scalar 1 54 float
0.674223 0.573328 0.660076 0.562492 0.653462 0.612022 0.637781 0.618328 0.59141 
0.594481 0.570353 0.58123 0.55613 0.557102 0.532504 0.548324 0.490223 0.535799 
0.435483 0.527213 0.498139 0.467606 0.438936 0.467263 0.27353 0.189259 0.271407 
0.189911 0.236391 0.184843 0.233026 0 0.049882 0.000362043 0.0246997 0.00101735 
0.00607881 0.030843 0.00900726 0.0305874 0.00915412 0.0410231 0.0173506 0.044467 0.033455 
0.0737587 0.0402603 0.067024 0.0506479 0.0790572 0.205734 0.230444 0.399057 0.188541 

METADATA
INFORMATION 0

VertexId 1 54 int
406495 381920 439135 422941 373790 365151 340702 291359 316446 
414813 414878 389023 397407 421790 413535 390814 390624 4447 
44959 471071 471327 208798 208799 61343 395419 141467 395426 
395615 10402 108706 2203 1886 122966 496273 4955 316014 
340503 340629 447014 438953 389333 389460 324454 308135 134820 
143013 299558 307814 126617 126616 471836 471772 126623 403806 

METADATA
INFORMATION 0

RegionSize 1 54 int
74 14 113 56 18 40 15 17 63 
9 33 5 241 3 427 7 1027 75 
115 16 116 3 965 12 567 11 451 
117 77 19454 85 6086 154618 15627 35663 17513 
10 73855 21 1455 9 43245 4 133714 11 
2868 8 5203 9 19454 3 7577 7577 355 

METADATA
INFORMATION 0

RegionSpan 1 54 int
0 0 0 0 0 0 0 0 0 
0 0 0 0 0 0 0 0 0 
0 0 0 0 0 0 0 0 0 
0 0 0 0 0 1 0 0 0 
0 0 0 0 0 0 0 1 0 
0 0 0 0 0 0 0 0 0 

METADATA
INFORMATION 0

