# vtk DataFile Version 4.2
vtk output
ASCII
DATASET UNSTRUCTURED_GRID
POINTS 38 float
0.46875 1.14062 0.71875 0.46875 1.09375 0.671875 0.46875 1.07812 0.625 
0.484375 1.09375 0.8125 0.453125 1.10938 0.84375 0.484375 1.04688 0.90625 
0.46875 1 0 0.484375 0.859375 0.21875 0.484375 0.84375 0.921875 
0.484375 0.875 0.921875 0.53125 0.53125 0.75 0.484375 0.578125 0.71875 
0.421875 0.53125 0.75 0.46875 0.578125 0.734375 0.421875 0.53125 0 
0.421875 0.53125 0.265625 0.53125 0.53125 0 0.53125 0.53125 0.265625 
0.46875 0.453125 0 0.375 0.015625 0.328125 0.71875 1.03125 0.71875 
0.640625 1.04688 0.78125 0.234375 1.03125 0.734375 0.484375 1.17188 0.21875 
0.546875 0.84375 0.25 0.5625 0.859375 0.1875 0.59375 1.09375 0.609375 
0.609375 1.01562 0.6875 0.59375 1.10938 0.84375 0.578125 1.04688 0.578125 
0.59375 1.0625 0.53125 0.40625 0.84375 0.234375 0.390625 0.859375 0.25 
0.59375 1.03125 0.859375 0.609375 1.04688 0.90625 0.59375 1.0625 0.921875 
0.59375 1.07812 0.953125 0.5 1 0.75 
METADATA
INFORMATION 2
NAME L2_NORM_RANGE LOCATION vtkDataArray
DATA 2 0.498533 1.55671 
NAME L2_NORM_FINITE_RANGE LOCATION vtkDataArray
DATA 2 0.498533 1.55671 

CELL_TYPES 0

POINT_DATA 38
SCALARS CriticalType int
LOOKUP_TABLE default
3 2 3 3 2 3 3 2 3 
2 3 2 3 2 3 2 3 2 
0 1 0 1 0 1 0 1 0 
1 0 0 1 0 1 0 1 0 
1 2 
METADATA
INFORMATION 0

FIELD FieldData 5
NodeId 1 38 int
0 1 2 3 4 5 6 7 8 
9 10 11 12 13 14 15 16 17 
18 19 20 21 22 23 24 25 26 
27 28 29 30 31 32 33 34 35 
36 37 
METADATA
INFORMATION 0

Scalar 1 38 float
0.636385 0.601233 0.632473 0.627737 0.553241 0.610263 0.511544 0.393918 0.480685 
0.457383 0.272516 0.190077 0.27225 0.189854 0.233885 0.186242 0.233096 0.188126 
0 0.0499002 0.000417374 0.0387924 0.00175115 0.0424698 0.0120004 0.0684491 0.0128353 
0.0446716 0.0153095 0.0176433 0.0526332 0.0225091 0.0601933 0.0243905 0.0484265 0.0324231 
0.0576347 0.537884 
METADATA
INFORMATION 0

VertexId 1 38 int
381534 356766 332126 430495 446941 479455 4126 118239 486815 
486943 395426 379231 395419 387422 2203 141467 2210 141474 
1886 172120 381102 413929 389263 119519 134563 101860 324006 
364647 446950 307429 282918 126362 134617 454822 479463 487718 
504166 397344 
METADATA
INFORMATION 0

RegionSize 1 38 int
28 176 22 69 49 41 157 7893 6 
1149 452 17 552 134 95 23067 74 154 
6257 130277 52765 17265 64932 26392 15 23067 18 
62351 22 5 24700 10 10006 8 88455 3 
5737 897 
METADATA
INFORMATION 0

RegionSpan 1 38 int
0 0 0 0 0 0 0 0 0 
0 0 0 0 0 0 0 0 0 
0 1 0 0 0 0 0 0 0 
0 0 0 0 0 0 0 1 0 
0 0 
METADATA
INFORMATION 0

