# vtk DataFile Version 4.2
vtk output
ASCII
DATASET UNSTRUCTURED_GRID
POINTS 111 float
0.5 1.3125 0.75 0.515625 1.39062 0.75 0.484375 1.26562 0.8125 
0.484375 1.32812 0.84375 0.5 1.39062 0.734375 0.484375 1.17188 0.734375 
0.484375 1.21875 0.734375 0.484375 1.3125 0.640625 0.46875 1.10938 0.640625 
0.46875 1.32812 0.875 0.484375 1.125 0.765625 0.484375 1.17188 0.75 
0.5 1.53125 0.671875 0.5 1.48438 0.703125 0.4375 1.375 0.734375 
0.453125 1.375 0.734375 0.46875 1.35938 0.78125 0.46875 1.32812 0.796875 
0.46875 1.07812 0.671875 0.484375 0.9375 0.8125 0.484375 0.90625 0.796875 
0.46875 1.15625 0.890625 0.46875 1.20312 0.890625 0.484375 0.953125 0.71875 
0.484375 1.01562 0.71875 0.453125 1.1875 0.53125 0.453125 1.10938 0.46875 
0.46875 0.921875 0.625 0.484375 0.9375 0.640625 0.421875 1.17188 0.703125 
0.421875 1.15625 0.703125 0.46875 1.09375 0.046875 0.5 1.10938 0.046875 
0.484375 1.07812 0.421875 0.46875 0.921875 0.859375 0.46875 0.9375 0.84375 
0.5 1.17188 0 0.46875 0.96875 0.53125 0.46875 1.01562 0.546875 
0.484375 1.17188 0.984375 0.484375 1.23438 0.9375 0.46875 1.03125 0.375 
0.46875 1.04688 0.390625 0.484375 1 0.984375 0.484375 1.03125 0.953125 
0.390625 1.375 0.796875 0.40625 1.34375 0.78125 0.484375 1.03125 0.109375 
0.46875 1.04688 0.078125 0.484375 1.0625 0.953125 0.484375 1.03125 0.9375 
0.46875 1.07812 0.9375 0.46875 1.0625 0.9375 0.515625 1.51562 0.765625 
0.515625 1.5 0.765625 0.484375 0.921875 0.484375 0.484375 1.01562 0.46875 
0.515625 1.25 0.5625 0.515625 1.26562 0.5625 0.5 1.03125 0.984375 
0.484375 1.03125 0.984375 0.421875 0.53125 0.734375 0.46875 0.578125 0.734375 
0.53125 0.53125 0.75 0.484375 0.578125 0.75 0.421875 0.53125 0 
0.421875 0.53125 0.21875 0.53125 0.53125 0 0.53125 0.53125 0.234375 
0.40625 1.17188 0.984375 0.421875 1.1875 0.984375 0.421875 1.20312 0.984375 
0.484375 1.51562 0 0.53125 1.96875 0.21875 0.46875 0.453125 0 
0.375 0.0625 0.5 0.734375 1.25 0.640625 0.296875 1.29688 0.8125 
0.34375 1.29688 0.828125 0.453125 1.34375 0.984375 0.421875 1.34375 0.984375 
0.546875 0.984375 0.921875 0.578125 1.01562 0.96875 0.328125 1.14062 0.796875 
0.296875 1.17188 0.78125 0.59375 1.10938 0.640625 0.609375 1.10938 0.625 
0.53125 1.15625 0.515625 0.546875 1.14062 0.53125 0.578125 0.96875 0.25 
0.59375 0.96875 0.25 0.390625 0.96875 0.25 0.359375 0.984375 0.21875 
0.546875 1.15625 0.546875 0.4375 1.26562 0.609375 0.421875 1.25 0.609375 
0.4375 1.20312 0.96875 0.4375 1.20312 0.984375 0.5625 1.21875 0.8125 
0.578125 1.20312 0.84375 0.4375 1.15625 0 0.40625 1.1875 0 
0.53125 1.3125 0.875 0.515625 1.34375 0.890625 0.421875 1.28125 0.84375 
0.421875 1.26562 0.84375 0.4375 1.14062 0.671875 0.5625 1.09375 0.5625 
0.453125 1.35938 0.75 0.5 1.15625 0.5625 0.46875 0.96875 0.25 

METADATA
INFORMATION 2
NAME L2_NORM_RANGE LOCATION vtkDataArray
DATA 2 0.628117 2.05087 
NAME L2_NORM_FINITE_RANGE LOCATION vtkDataArray
DATA 2 0.628117 2.05087 

CELL_TYPES 0

POINT_DATA 111
SCALARS CriticalType int
LOOKUP_TABLE default
3 2 3 2 3 3 2 3 2 
3 3 2 3 2 3 2 3 2 
3 3 2 3 2 3 2 3 2 
3 2 3 2 3 2 3 3 2 
3 3 2 3 2 3 2 3 2 
3 2 3 2 3 2 3 2 3 
2 3 2 3 2 3 2 3 2 
3 2 3 2 3 2 3 4 3 
3 2 0 1 0 1 0 0 1 
0 1 0 1 0 1 0 1 0 
1 0 1 0 0 1 0 1 0 
1 0 1 0 1 0 1 2 1 
2 2 2 
METADATA
INFORMATION 0

FIELD FieldData 5
NodeId 1 111 int
0 1 2 3 4 5 6 7 8 
9 10 11 12 13 14 15 16 17 
18 19 20 21 22 23 24 25 26 
27 28 29 30 31 32 33 34 35 
36 37 38 39 40 41 42 43 44 
45 46 47 48 49 50 51 52 53 
54 55 56 57 58 59 60 61 62 
63 64 65 66 67 68 69 70 71 
72 73 74 75 76 77 78 79 80 
81 82 83 84 85 86 87 88 89 
90 91 92 93 94 95 96 97 98 
99 100 101 102 103 104 105 106 107 
108 109 110 
METADATA
INFORMATION 0

Scalar 1 111 float
0.682393 0.633176 0.666618 0.606498 0.661215 0.648167 0.623405 0.645079 0.551573 
0.644759 0.639342 0.591166 0.618309 0.580637 0.597736 0.567986 0.585466 0.559642 
0.579168 0.565141 0.517613 0.563599 0.534747 0.561112 0.527177 0.550511 0.483594 
0.545833 0.504683 0.540045 0.51176 0.537617 0.43052 0.532366 0.531781 0.504588 
0.52728 0.508277 0.47437 0.503765 0.426577 0.501293 0.462958 0.495602 0.452677 
0.491183 0.459261 0.482773 0.428368 0.482474 0.46029 0.471705 0.44212 0.470186 
0.43103 0.468424 0.437457 0.447715 0.424773 0.42953 0.400219 0.272693 0.189442 
0.272496 0.190373 0.23971 0.189176 0.233128 0.188965 0.224943 0.199287 0.224217 
0.0718405 0.049687 0 0.0498993 0.000607389 0.0315446 0.00633541 0.00760867 0.0535543 
0.00899681 0.0338855 0.0150117 0.0421731 0.0151227 0.037577 0.0395291 0.0940239 0.0523503 
0.0793239 0.0642356 0.0989807 0.0694872 0.16438 0.191466 0.165559 0.189118 0.165687 
0.197622 0.169599 0.252699 0.202348 0.235645 0.246585 0.27472 0.536429 0.113334 
0.552014 0.463764 0.405474 
METADATA
INFORMATION 0

VertexId 1 111 int
398624 398945 431199 447839 390752 389855 390047 341279 340446 
464222 406047 398047 358560 374752 390684 390685 415198 423262 
356702 429855 421535 471710 471902 380767 381023 283421 250333 
331486 339743 373467 373403 29086 29152 225631 454366 446238 
4832 282526 290910 520927 496607 200862 209118 520223 503967 
423449 415130 61599 45278 504095 495775 495966 495902 407649 
407585 257759 249951 300065 300129 520352 520351 387227 387422 
395426 395615 2203 116891 2210 125090 520922 520987 521051 
6239 122786 1886 262424 341039 431315 439510 521629 521627 
487395 512101 422485 414419 340454 332263 275106 283235 135077 
135078 135065 118743 291491 324700 324635 512860 521052 431012 
447333 4764 4890 464162 472481 447643 447579 356956 299428 
398813 299680 135070 
METADATA
INFORMATION 0

RegionSize 1 111 int
19 7 15 84 5 4 37 99 51 
14 14 22 4 27 7 58 5 21 
6 12 77 3 83 11 127 39 27 
14 3 3 98 39 4 17 5 845 
36 15 32 43 48 8 69 20 281 
10 178 38 122 4 34 0 109 10 
119 11 188 0 635 0 7272 562 21 
452 78 77 5 73 11236 5 109 0 
5523 129614 6837 93890 96136 14877 15 5 43911 
20 27669 17 129614 5 52250 8 11 9 
7207 8 3706 1 2 434 0 5 4 
109 20 1637 14 1223 4 7272 12 11236 
112 9 219 
METADATA
INFORMATION 0

RegionSpan 1 111 int
0 0 0 0 0 0 0 0 0 
0 0 0 0 0 0 0 0 0 
0 0 0 0 0 0 0 0 0 
0 0 0 0 0 0 0 0 0 
0 0 0 0 0 0 0 0 0 
0 0 0 0 0 0 0 0 0 
0 0 0 0 0 0 0 0 0 
0 0 0 1 0 0 0 0 0 
0 1 0 1 0 0 0 0 0 
0 0 0 1 0 0 0 0 0 
0 0 0 0 0 0 0 1 0 
0 0 0 0 0 0 0 0 0 
0 0 0 
METADATA
INFORMATION 0

