# vtk DataFile Version 4.2
vtk output
ASCII
DATASET UNSTRUCTURED_GRID
POINTS 46 float
0.484375 1.125 0.6875 0.484375 1.09375 0.828125 0.46875 1.09375 0.84375 
0.46875 1.09375 0.890625 0.453125 1.09375 0.859375 0.5 1.10938 0.625 
0.46875 1.07812 0.59375 0.484375 1.04688 0.546875 0.484375 1.04688 0.8125 
0.46875 1.01562 0.796875 0.484375 1.04688 0.953125 0.484375 1.0625 0.921875 
0.484375 1.01562 0 0.46875 0.859375 0.046875 0.484375 0.9375 0.90625 
0.484375 0.984375 0.90625 0.484375 0.890625 0.546875 0.484375 0.9375 0.546875 
0.46875 0.84375 0 0.421875 0.53125 0.703125 0.46875 0.578125 0.734375 
0.53125 0.53125 0.703125 0.53125 0.53125 0.296875 0.53125 0.53125 0 
0.421875 0.53125 0.03125 0.421875 0.53125 0.21875 0.46875 0.453125 0 
0.28125 0.125 0.21875 0.703125 1.0625 0.59375 0.640625 1.09375 0.859375 
0.234375 1.04688 0.71875 0.328125 1.09375 0.671875 0.359375 1.03125 0.671875 
0.40625 0.859375 0.234375 0.390625 0.875 0.203125 0.609375 1.10938 0.859375 
0.59375 1.04688 0.890625 0.609375 1.0625 0.859375 0.546875 0.859375 0.25 
0.578125 0.859375 0.21875 0.375 1.125 0.921875 0.359375 1.125 0.921875 
0.5 1.07812 0.65625 0.46875 0.875 0.25 0.484375 0.578125 0.78125 
0.5 1.1875 0.25 
METADATA
INFORMATION 2
NAME L2_NORM_RANGE LOCATION vtkDataArray
DATA 2 0.377595 1.53141 
NAME L2_NORM_FINITE_RANGE LOCATION vtkDataArray
DATA 2 0.377595 1.53141 

CELL_TYPES 0

POINT_DATA 46
SCALARS CriticalType int
LOOKUP_TABLE default
3 2 3 3 2 3 2 3 3 
2 3 2 3 2 3 2 3 2 
3 3 2 3 2 3 3 2 0 
1 0 1 0 1 0 0 1 0 
0 1 0 1 0 1 2 2 2 
1 
METADATA
INFORMATION 0

FIELD FieldData 5
NodeId 1 46 int
0 1 2 3 4 5 6 7 8 
9 10 11 12 13 14 15 16 17 
18 19 20 21 22 23 24 25 26 
27 28 29 30 31 32 33 34 35 
36 37 38 39 40 41 42 43 44 
45 
METADATA
INFORMATION 0

Scalar 1 46 float
0.651125 0.574189 0.636712 0.62353 0.569319 0.611666 0.559101 0.600263 0.596127 
0.569972 0.593223 0.556253 0.533058 0.400857 0.508398 0.463483 0.492931 0.462192 
0.433792 0.272276 0.189525 0.272254 0.189193 0.232541 0.232155 0.188512 0 
0.0499083 0.00105441 0.0393231 0.00147666 0.0310086 0.0071224 0.0144078 0.0621695 0.0176812 
0.0187707 0.0478294 0.0188141 0.0642345 0.0202026 0.0485279 0.545627 0.398457 0.188499 
0.0414537 
METADATA
INFORMATION 0

VertexId 1 46 int
365087 438687 446878 471454 455069 332256 315742 291039 430303 
421982 504031 487711 4191 28126 479007 479199 290399 290591 
3486 370843 387422 370850 157858 2210 18587 116891 1886 
115218 315693 455081 381135 356757 356503 126426 110105 455143 
471270 454951 134627 118245 487960 487959 348512 134686 411999 
135968 
METADATA
INFORMATION 0

RegionSize 1 46 int
135 14 5 27 58 22 12 18 5 
3 15 55 135 18 10 14 4 1167 
14 559 74 467 8 70 81 1 6504 
158781 56906 10275 27038 34898 17 7 2645 15 
7 17493 8 28448 0 83312 899 8484 28448 
85514 
METADATA
INFORMATION 0

RegionSpan 1 46 int
0 0 0 0 0 0 0 0 0 
0 0 0 0 0 0 0 0 0 
0 0 0 0 0 0 0 0 0 
0 0 0 0 0 0 0 0 0 
0 0 0 0 0 1 0 0 0 
0 
METADATA
INFORMATION 0

