# vtk DataFile Version 4.2
vtk output
ASCII
DATASET UNSTRUCTURED_GRID
POINTS 62 float
0.46875 1.20312 0.796875 0.46875 1.20312 0.78125 0.46875 1.28125 0.6875 
0.46875 1.32812 0.734375 0.46875 1.21875 0.765625 0.46875 1.10938 0.953125 
0.5 1.15625 0.90625 0.515625 1.17188 0.5625 0.5 1.15625 0.5625 
0.484375 1.125 0.578125 0.515625 1.1875 0.875 0.46875 0.96875 0.890625 
0.46875 1 0.875 0.484375 1.04688 0.015625 0.46875 0.96875 0.09375 
0.484375 0.921875 0.5625 0.46875 0.859375 0.578125 0.453125 1.03125 0.4375 
0.46875 1.0625 0.46875 0.484375 0.921875 0.625 0.484375 0.96875 0.640625 
0.484375 0.875 0.59375 0.484375 0.84375 0.609375 0.484375 0.96875 0.09375 
0.484375 0.953125 0.984375 0.484375 0.890625 0.984375 0.46875 0.921875 0.328125 
0.484375 0.921875 0.34375 0.484375 0.84375 0 0.5 0.953125 0.015625 
0.53125 0.53125 0.734375 0.53125 0.53125 0.3125 0.421875 0.53125 0.71875 
0.46875 0.578125 0.703125 0.53125 0.53125 0.015625 0.421875 0.53125 0 
0.421875 0.53125 0.21875 0.46875 0.453125 0 0.296875 0.0625 0.296875 
0.296875 0.921875 0.234375 0.484375 1.23438 0.5 0.703125 1.125 0.578125 
0.625 1.07812 0.71875 0.65625 1.125 0.84375 0.40625 0.953125 0.96875 
0.359375 0.953125 0.96875 0.359375 1.1875 0.890625 0.359375 1.17188 0.875 
0.59375 1.15625 0.890625 0.609375 1.17188 0.875 0.40625 1.26562 0.5625 
0.390625 1.26562 0.5625 0.5625 0.90625 0.234375 0.578125 0.90625 0.234375 
0.390625 0.90625 0.25 0.375 0.90625 0.1875 0.421875 1.1875 0.859375 
0.40625 1.17188 0.859375 0.453125 1.15625 0.609375 0.484375 1.1875 0.859375 
0.484375 0.90625 0.265625 0.484375 0.578125 0.71875 
METADATA
INFORMATION 2
NAME L2_NORM_RANGE LOCATION vtkDataArray
DATA 2 0.424471 1.58838 
NAME L2_NORM_FINITE_RANGE LOCATION vtkDataArray
DATA 2 0.424471 1.58838 

CELL_TYPES 0

POINT_DATA 62
SCALARS CriticalType int
LOOKUP_TABLE default
3 2 3 2 3 3 2 3 2 
3 3 3 2 3 2 3 2 3 
2 3 2 3 2 3 3 2 3 
2 3 2 3 2 3 2 3 3 
2 0 1 0 1 0 0 1 0 
1 0 1 0 1 0 1 0 1 
0 1 0 1 2 2 2 2 
METADATA
INFORMATION 0

FIELD FieldData 5
NodeId 1 62 int
0 1 2 3 4 5 6 7 8 
9 10 11 12 13 14 15 16 17 
18 19 20 21 22 23 24 25 26 
27 28 29 30 31 32 33 34 35 
36 37 38 39 40 41 42 43 44 
45 46 47 48 49 50 51 52 53 
54 55 56 57 58 59 60 61 
METADATA
INFORMATION 0

Scalar 1 62 float
0.667218 0.618633 0.662032 0.613724 0.650751 0.584925 0.52278 0.566964 0.53472 
0.565013 0.564245 0.535925 0.514404 0.529913 0.435654 0.522938 0.464888 0.521635 
0.484734 0.515723 0.493403 0.49801 0.472453 0.461449 0.447178 0.41873 0.438992 
0.414679 0.427015 0.397558 0.271691 0.189954 0.271604 0.188413 0.236185 0.234092 
0.18435 0 0.0499045 0.00119697 0.030669 0.00137508 0.00624402 0.0331077 0.0121936 
0.0386729 0.0123365 0.0349003 0.016199 0.04152 0.0235726 0.0513388 0.0421272 0.0740444 
0.0438002 0.0748906 0.201728 0.228436 0.490309 0.516355 0.401619 0.187217 
METADATA
INFORMATION 0

VertexId 1 62 int
422750 414558 365726 390494 406430 504286 479904 299745 299680 
307743 463649 470942 462878 12511 53150 298719 306654 233629 
250142 331487 339871 314911 322975 53151 520031 519775 175838 
184031 3487 12128 387234 166050 379035 371038 10402 2203 
116891 1886 155923 126675 267231 307757 381288 447018 511834 
511831 471831 463575 471718 463591 300122 300121 126628 126629 
134809 102040 455451 455386 324253 455455 143007 379231 
METADATA
INFORMATION 0

RegionSize 1 62 int
18 8 60 585 23 26 9 2 59 
8 23 3 254 81 80 15 955 15 
203 7 54 4 93 10 11 100 9 
360 18 7934 447 35 578 109 70 96 
21138 6547 91752 33126 13757 36191 37 10830 22 
29467 2 26430 3 175571 1 63714 7 466 
14 21138 3 7934 74 23 141 288 
METADATA
INFORMATION 0

RegionSpan 1 62 int
0 0 0 0 0 0 0 0 0 
0 0 0 0 0 0 0 0 0 
0 0 0 0 0 0 0 0 0 
0 0 0 0 0 0 0 0 0 
0 0 1 0 0 0 0 0 0 
0 0 0 0 1 0 0 0 0 
0 0 0 0 0 0 0 0 
METADATA
INFORMATION 0

