# vtk DataFile Version 4.2
vtk output
ASCII
DATASET UNSTRUCTURED_GRID
POINTS 46 float
0.46875 1.1875 0.703125 0.46875 1.20312 0.671875 0.46875 1.21875 0.65625 
0.484375 1.23438 0.78125 0.484375 1.07812 0.78125 0.484375 1.15625 0.890625 
0.453125 1.20312 0.84375 0.46875 1.0625 0.796875 0.515625 1.21875 0.734375 
0.515625 1.23438 0.75 0.46875 1.07812 0.484375 0.5 1.09375 0.53125 
0.453125 1.39062 0.734375 0.46875 1.35938 0.734375 0.46875 1.03125 0.03125 
0.484375 0.984375 0.078125 0.484375 0.96875 0.09375 0.5 0.96875 0.546875 
0.5 0.953125 0.546875 0.46875 0.859375 0 0.46875 0.90625 0 
0.421875 0.53125 0.75 0.46875 0.578125 0.734375 0.53125 0.53125 0.75 
0.53125 0.53125 0.265625 0.421875 0.53125 0 0.421875 0.53125 0.234375 
0.53125 0.53125 0 0.46875 0.453125 0 0.28125 0.03125 0.0625 
0.25 1.14062 0.90625 0.453125 1.21875 0.484375 0.71875 1.125 0.609375 
0.59375 1.14062 0.875 0.625 1.125 0.90625 0.578125 1.15625 0.546875 
0.578125 1.15625 0.515625 0.546875 1.20312 0.96875 0.5 1.21875 0.96875 
0.5625 0.90625 0.21875 0.578125 0.90625 0.1875 0.390625 0.90625 0.25 
0.375 0.90625 0.25 0.484375 1.26562 0.734375 0.484375 0.578125 0.71875 
0.46875 0.921875 0.265625 
METADATA
INFORMATION 2
NAME L2_NORM_RANGE LOCATION vtkDataArray
DATA 2 0.289801 1.63861 
NAME L2_NORM_FINITE_RANGE LOCATION vtkDataArray
DATA 2 0.289801 1.63861 

CELL_TYPES 0

POINT_DATA 46
SCALARS CriticalType int
LOOKUP_TABLE default
3 2 3 3 2 3 2 3 3 
2 3 2 3 2 3 2 3 3 
2 3 2 3 2 3 2 3 2 
3 0 1 0 1 0 0 1 0 
1 0 1 0 1 0 1 2 2 
2 
METADATA
INFORMATION 0

FIELD FieldData 5
NodeId 1 46 int
0 1 2 3 4 5 6 7 8 
9 10 11 12 13 14 15 16 17 
18 19 20 21 22 23 24 25 26 
27 28 29 30 31 32 33 34 35 
36 37 38 39 40 41 42 43 44 
45 
METADATA
INFORMATION 0

Scalar 1 46 float
0.675345 0.616211 0.654481 0.652109 0.567782 0.627477 0.559384 0.610592 0.60173 
0.553212 0.582747 0.531515 0.560671 0.521326 0.524841 0.452578 0.487484 0.461156 
0.433936 0.435658 0.408001 0.272512 0.189533 0.272307 0.190143 0.23475 0.186729 
0.233329 0 0.0498922 0.000999577 0.032938 0.00125611 0.0122037 0.0342592 0.0147482 
0.0429108 0.0311749 0.0552588 0.037545 0.0765132 0.0435719 0.0679241 0.540664 0.189616 
0.39822 
METADATA
INFORMATION 0

VertexId 1 46 int
373534 357214 349086 414687 414047 471711 447325 422174 390049 
398305 258398 283040 390749 390622 20638 45023 53151 290720 
290656 3550 3742 395419 387422 395426 141474 2203 125083 
2210 1886 32914 479824 258973 324142 463462 479784 291493 
275109 512867 512928 118436 102053 134809 134808 390239 379231 
143070 
METADATA
INFORMATION 0

RegionSize 1 46 int
34 246 25 61 24 49 18 6 18 
67 16 106 7 1515 49 94 4 0 
902 11 50 558 255 453 13 86 20604 
63 6454 129375 39135 7770 42839 3 78009 5 
155403 3 23782 13 20604 7 6028 99 2 
9981 
METADATA
INFORMATION 0

RegionSpan 1 46 int
0 0 0 0 0 0 0 0 0 
0 0 0 0 0 0 0 0 0 
0 0 0 0 0 0 0 0 0 
0 0 1 0 0 0 0 0 0 
1 0 0 0 0 0 0 0 0 
0 
METADATA
INFORMATION 0

