# vtk DataFile Version 4.2
vtk output
ASCII
DATASET UNSTRUCTURED_GRID
POINTS 40 float
0.46875 1.10938 0.703125 0.484375 1.20312 0.71875 0.46875 1.07812 0.765625 
0.46875 1.0625 0.859375 0.484375 1.10938 0.8125 0.46875 1.0625 0.578125 
0.46875 1.0625 0.59375 0.484375 1 0 0.46875 0.890625 0.015625 
0.484375 0.890625 0.578125 0.5 0.890625 0.546875 0.484375 0.921875 0.40625 
0.46875 0.921875 0.421875 0.46875 0.84375 0 0.421875 0.53125 0.71875 
0.46875 0.578125 0.734375 0.53125 0.53125 0.75 0.53125 0.53125 0.234375 
0.53125 0.53125 0 0.421875 0.53125 0 0.421875 0.53125 0.203125 
0.46875 0.453125 0 0.5625 0.046875 0.234375 0.71875 1.03125 0.765625 
0.484375 1.17188 0.21875 0.265625 1.04688 0.59375 0.3125 1.0625 0.84375 
0.34375 1.07812 0.640625 0.328125 1.09375 0.609375 0.609375 1.04688 0.640625 
0.609375 1.03125 0.671875 0.359375 1.0625 0.84375 0.546875 0.84375 0.21875 
0.5625 0.84375 0.234375 0.40625 0.84375 0.25 0.390625 0.84375 0.28125 
0.578125 1.03125 0.90625 0.59375 1.04688 0.921875 0.484375 0.84375 0.234375 
0.484375 0.578125 0.75 
METADATA
INFORMATION 2
NAME L2_NORM_RANGE LOCATION vtkDataArray
DATA 2 0.611175 1.51603 
NAME L2_NORM_FINITE_RANGE LOCATION vtkDataArray
DATA 2 0.611175 1.51603 

CELL_TYPES 0

POINT_DATA 40
SCALARS CriticalType int
LOOKUP_TABLE default
3 2 3 3 2 3 2 3 2 
3 2 3 2 3 3 2 3 2 
3 3 2 0 1 0 1 0 1 
0 1 0 1 0 0 1 0 1 
0 1 2 2 
METADATA
INFORMATION 0

FIELD FieldData 5
NodeId 1 40 int
0 1 2 3 4 5 6 7 8 
9 10 11 12 13 14 15 16 17 
18 19 20 21 22 23 24 25 26 
27 28 29 30 31 32 33 34 35 
36 37 38 39 
METADATA
INFORMATION 0

Scalar 1 40 float
0.663734 0.602674 0.636974 0.603618 0.569417 0.603521 0.57478 0.524944 0.388711 
0.491594 0.448105 0.486482 0.460857 0.417457 0.273585 0.190253 0.271741 0.19018 
0.235715 0.232613 0.189123 0 0.0498972 0.00157367 0.0421801 0.00169965 0.0356108 
0.0124611 0.0379805 0.0128794 0.0438871 0.013621 0.0179898 0.0568583 0.0200321 0.0693172 
0.0323189 0.0645854 0.38849 0.18991 
METADATA
INFORMATION 0

VertexId 1 40 int
373214 381791 405854 454942 430559 307486 315678 4127 11870 
306783 290400 216799 224990 3486 379035 387422 395426 125090 
2210 2203 108699 1886 123108 405678 119519 315601 446740 
340310 323989 340199 356519 446743 118179 126372 134554 150937 
479397 487654 126367 395615 
METADATA
INFORMATION 0

RegionSize 1 40 int
25 93 32 40 1032 3 22 164 0 
11 1085 4 182 17 564 12 454 5 
61 80 22810 6091 152996 69096 20150 37815 7278 
15 17396 11 160237 17 9 14290 13 22810 
6 4368 7702 62 
METADATA
INFORMATION 0

RegionSpan 1 40 int
0 0 0 0 0 0 0 0 0 
0 0 0 0 0 0 0 0 0 
0 0 0 0 0 0 0 0 0 
0 0 0 1 0 0 0 0 0 
0 0 0 0 
METADATA
INFORMATION 0

