# vtk DataFile Version 4.2
vtk output
ASCII
DATASET UNSTRUCTURED_GRID
POINTS 78 float
0.515625 1.32812 0.765625 0.484375 1.32812 0.75 0.4375 1.20312 0.703125 
0.46875 1.26562 0.703125 0.46875 1.23438 0.859375 0.453125 1.29688 0.8125 
0.484375 1.32812 0.6875 0.453125 1.10938 0.796875 0.453125 1.15625 0.796875 
0.484375 1.1875 0.53125 0.46875 1.25 0.59375 0.453125 1.14062 0.96875 
0.5 1.17188 0.921875 0.4375 1.32812 0.59375 0.46875 0.96875 0.828125 
0.46875 1.0625 0.8125 0.453125 1.10938 0 0.484375 1.01562 0.0625 
0.46875 1.0625 0.4375 0.5 1.07812 0.453125 0.484375 1.01562 0.640625 
0.484375 1.07812 0.65625 0.46875 0.9375 0.703125 0.46875 0.90625 0.734375 
0.46875 0.90625 0.78125 0.46875 0.953125 0.796875 0.453125 1.03125 0.703125 
0.453125 1.0625 0.703125 0.46875 0.96875 0.53125 0.46875 0.875 0.53125 
0.484375 1 0.375 0.46875 1 0.40625 0.46875 0.890625 0.96875 
0.484375 0.90625 0.9375 0.5 1 0.09375 0.484375 0.96875 0 
0.46875 0.984375 0.015625 0.46875 0.96875 0.109375 0.484375 1 0.109375 
0.484375 0.9375 0.21875 0.484375 0.953125 0.1875 0.578125 1.23438 0.9375 
0.578125 1.26562 0.9375 0.53125 0.53125 0.75 0.484375 0.578125 0.75 
0.421875 0.53125 0.71875 0.46875 0.578125 0.765625 0.421875 0.53125 0.015625 
0.421875 0.53125 0.234375 0.53125 0.53125 0 0.53125 0.53125 0.21875 
0.578125 1.125 0.609375 0.5625 1.10938 0.609375 0.515625 1.32812 0 
0.453125 1.98438 0.21875 0.46875 0.453125 0 0.625 0.015625 0.109375 
0.203125 1.15625 0.78125 0.53125 1.29688 0.484375 0.71875 1.15625 0.875 
0.3125 1.10938 0.78125 0.3125 1.125 0.78125 0.40625 1.26562 0.953125 
0.34375 1.23438 0.921875 0.609375 1.1875 0.84375 0.625 1.15625 0.859375 
0.625 1.07812 0.6875 0.640625 1.09375 0.703125 0.390625 0.9375 0.234375 
0.359375 0.9375 0.234375 0.421875 1.3125 0.546875 0.4375 1.3125 0.53125 
0.5625 0.9375 0.265625 0.578125 0.9375 0.265625 0.515625 1.125 0 
0.515625 1.17188 0 0.453125 1.32812 0.625 0.484375 0.9375 0.234375 

METADATA
INFORMATION 2
NAME L2_NORM_RANGE LOCATION vtkDataArray
DATA 2 0.634691 2.04717 
NAME L2_NORM_FINITE_RANGE LOCATION vtkDataArray
DATA 2 0.634691 2.04717 

CELL_TYPES 0

POINT_DATA 78
SCALARS CriticalType int
LOOKUP_TABLE default
3 2 3 2 3 2 3 3 2 
3 2 3 2 3 3 2 3 2 
3 2 3 2 3 2 3 2 3 
2 3 2 3 2 3 2 3 3 
2 3 2 3 2 3 2 3 2 
3 2 3 2 3 2 3 2 3 
2 0 1 0 1 0 0 1 0 
1 0 1 0 1 0 1 0 1 
0 1 0 1 2 2 
METADATA
INFORMATION 0

FIELD FieldData 5
NodeId 1 78 int
0 1 2 3 4 5 6 7 8 
9 10 11 12 13 14 15 16 17 
18 19 20 21 22 23 24 25 26 
27 28 29 30 31 32 33 34 35 
36 37 38 39 40 41 42 43 44 
45 46 47 48 49 50 51 52 53 
54 55 56 57 58 59 60 61 62 
63 64 65 66 67 68 69 70 71 
72 73 74 75 76 77 
METADATA
INFORMATION 0

Scalar 1 78 float
0.646922 0.565811 0.640541 0.593929 0.637345 0.55133 0.623788 0.616127 0.556341 
0.614532 0.562433 0.595344 0.444013 0.59518 0.566631 0.539686 0.561173 0.45274 
0.559165 0.483557 0.554331 0.530351 0.548164 0.522756 0.545653 0.508471 0.533334 
0.51145 0.506179 0.463308 0.48359 0.426204 0.482152 0.449651 0.481631 0.458358 
0.413788 0.457021 0.427341 0.436455 0.412696 0.276816 0.249207 0.273307 0.189684 
0.271878 0.191115 0.236279 0.188893 0.234435 0.184462 0.222197 0.195716 0.0768356 
0.049978 0 0.0499146 0.000397379 0.0259746 0.000492914 0.00461523 0.0321525 0.00581718 
0.0327039 0.00801817 0.0309132 0.0157541 0.039565 0.0253747 0.0749209 0.0263637 0.064965 
0.0300099 0.0793356 0.173575 0.247547 0.561108 0.404061 
METADATA
INFORMATION 0

VertexId 1 78 int
406881 398687 373596 373854 455646 431325 365919 422365 422557 
283423 316446 512605 488160 316764 438174 430366 4573 36959 
233758 242016 340063 348511 372510 388766 413342 421726 372893 
373021 282526 282142 200735 217118 511582 495263 53280 3999 
12254 61342 61471 118559 102239 496613 496741 395426 395615 
379035 403806 10395 125083 2210 116898 324133 324068 5473 
122845 1886 57448 414349 259298 463534 414164 414228 504922 
488406 447271 455336 364904 373161 126745 126743 292123 283932 
143140 143141 4641 4833 333149 126751 
METADATA
INFORMATION 0

RegionSize 1 78 int
88 21 10 86 74 119 24 12 42 
58 1 111 455 19 11 93 29 34 
18 362 13 100 18 207 14 436 8 
43 7 258 19 608 15 139 5 15 
0 7 40 3 43 7 99 461 65 
527 109 78 466 78 20055 6 315 5811 
11286 7001 11286 24854 26534 28110 0 3206 19 
49530 31 7020 3 191117 12 2411 1 8421 
13 20055 9 99 33 7563 
METADATA
INFORMATION 0

RegionSpan 1 78 int
0 0 0 0 0 0 0 0 0 
0 0 0 0 0 0 0 0 0 
0 0 0 0 0 0 0 0 0 
0 0 0 0 0 0 0 0 0 
0 0 0 0 0 0 0 0 0 
0 0 0 0 0 0 0 0 0 
1 0 1 0 0 0 0 0 0 
0 0 0 0 1 0 0 0 0 
0 0 0 0 0 0 
METADATA
INFORMATION 0

