# vtk DataFile Version 4.2
vtk output
ASCII
DATASET UNSTRUCTURED_GRID
POINTS 54 float
0.484375 1.25 0.734375 0.46875 1.25 0.71875 0.484375 1.26562 0.6875 
0.484375 1.28125 0.796875 0.46875 1.20312 0.765625 0.484375 1.15625 0.625 
0.484375 1.15625 0.671875 0.484375 1.04688 0.453125 0.46875 1.09375 0.5 
0.46875 1.10938 0.9375 0.484375 1.15625 0.921875 0.484375 0.953125 0.8125 
0.484375 0.984375 0.8125 0.453125 1.14062 0.5625 0.4375 1.14062 0.578125 
0.484375 1 0.921875 0.46875 1.04688 0.9375 0.46875 1.01562 0.046875 
0.46875 0.984375 0.078125 0.46875 0.96875 0.375 0.484375 0.984375 0.40625 
0.484375 0.90625 0.96875 0.46875 0.890625 0.953125 0.484375 0.96875 0.09375 
0.484375 0.828125 0.5 0.46875 0.828125 0.515625 0.453125 0.90625 0 
0.46875 0.953125 0.015625 0.421875 0.53125 0.703125 0.46875 0.578125 0.796875 
0.53125 0.53125 0.765625 0.484375 0.578125 0.78125 0.53125 0.53125 0.015625 
0.53125 0.53125 0.28125 0.421875 0.53125 0 0.421875 0.53125 0.25 
0.484375 1.35938 0 0.46875 1.875 0.28125 0.46875 0.453125 0 
0.625 0.015625 0.421875 0.265625 1.14062 0.90625 0.671875 1.10938 0.78125 
0.640625 1.09375 0.765625 0.328125 1.07812 0.703125 0.328125 1.10938 0.65625 
0.390625 0.90625 0.234375 0.375 0.90625 0.234375 0.5625 1.23438 0.5625 
0.5625 1.23438 0.546875 0.5625 0.90625 0.265625 0.578125 0.90625 0.28125 
0.453125 1.25 0.625 0.453125 1.23438 0.625 0.46875 0.90625 0.25 

METADATA
INFORMATION 2
NAME L2_NORM_RANGE LOCATION vtkDataArray
DATA 2 0.651958 1.95306 
NAME L2_NORM_FINITE_RANGE LOCATION vtkDataArray
DATA 2 0.651958 1.95306 

CELL_TYPES 0

POINT_DATA 54
SCALARS CriticalType int
LOOKUP_TABLE default
3 2 3 3 2 3 2 3 2 
3 2 3 2 3 2 3 2 3 
2 3 2 3 2 3 3 2 3 
2 3 2 3 2 3 2 3 2 
3 2 0 1 0 1 0 0 1 
0 1 0 1 0 1 0 1 2 

METADATA
INFORMATION 0

FIELD FieldData 5
NodeId 1 54 int
0 1 2 3 4 5 6 7 8 
9 10 11 12 13 14 15 16 17 
18 19 20 21 22 23 24 25 26 
27 28 29 30 31 32 33 34 35 
36 37 38 39 40 41 42 43 44 
45 46 47 48 49 50 51 52 53 

METADATA
INFORMATION 0

Scalar 1 54 float
0.687835 0.624992 0.679089 0.677771 0.601618 0.627828 0.585942 0.566918 0.481427 
0.561855 0.534305 0.543453 0.497022 0.532813 0.509317 0.524287 0.484511 0.497329 
0.417693 0.490364 0.437063 0.48737 0.437836 0.450921 0.437044 0.414631 0.43341 
0.374913 0.272232 0.189857 0.271975 0.189689 0.236728 0.188226 0.233277 0.189418 
0.0727395 0.0501771 0 0.0499122 0.00078826 0.0282432 0.00405947 0.0151042 0.0396539 
0.036687 0.0744264 0.0368805 0.0626598 0.0466482 0.0757731 0.254407 0.27775 0.404178 

METADATA
INFORMATION 0

VertexId 1 54 int
390175 381982 365663 423071 406366 332447 357023 241887 266654 
496094 488095 429919 430047 299613 307804 487455 495838 28766 
45022 200606 217055 511647 503390 53151 265567 273758 3741 
12126 370843 420190 403618 411999 10402 149666 2203 133275 
5599 155166 1886 221288 479825 414187 405929 373077 348629 
126617 126616 300004 291812 143012 151205 332829 332765 134814 

METADATA
INFORMATION 0

RegionSize 1 54 int
21 50 26 79 62 26 348 29 870 
7 233 10 152 14 160 11 56 77 
49 10 550 7 15 8 6 257 37 
4607 573 17 448 22 71 21096 77 99 
5922 44024 7322 44024 56330 74632 16 17 195967 
9 753 0 10428 9 21096 2 4607 921 

METADATA
INFORMATION 0

RegionSpan 1 54 int
0 0 0 0 0 0 0 0 0 
0 0 0 0 0 0 0 0 0 
0 0 0 0 0 0 0 0 0 
0 0 0 0 0 0 0 0 0 
0 1 0 1 0 0 0 0 1 
0 0 0 0 0 0 0 0 0 

METADATA
INFORMATION 0

