# vtk DataFile Version 4.2
vtk output
ASCII
DATASET UNSTRUCTURED_GRID
POINTS 54 float
0.484375 1.25 0.71875 0.453125 1.21875 0.796875 0.46875 1.28125 0.828125 
0.5 1.125 0.53125 0.46875 1.125 0.5625 0.453125 1.17188 0.59375 
0.46875 1.0625 0.484375 0.484375 1.07812 0.5 0.484375 1.04688 0.625 
0.484375 1.0625 0.640625 0.4375 1.125 0.96875 0.484375 1.09375 0.953125 
0.484375 1 0.609375 0.484375 1.03125 0.609375 0.5 1.03125 0.921875 
0.46875 0.890625 0.65625 0.46875 0.921875 0.671875 0.453125 1.03125 0.015625 
0.484375 1.01562 0.0625 0.5 0.96875 0.078125 0.46875 0.96875 0.953125 
0.484375 0.984375 0.9375 0.484375 0.890625 0 0.484375 0.921875 0 
0.53125 0.53125 0.734375 0.484375 0.578125 0.8125 0.421875 0.53125 0.765625 
0.46875 0.578125 0.796875 0.421875 0.53125 0 0.421875 0.53125 0.265625 
0.53125 0.53125 0 0.53125 0.53125 0.28125 0.46875 0.453125 0 
0.6875 0.078125 0.453125 0.25 1.14062 0.890625 0.53125 1.21875 0.5 
0.703125 1.125 0.59375 0.640625 1.07812 0.75 0.65625 1.09375 0.6875 
0.328125 1.0625 0.765625 0.3125 1.0625 0.75 0.390625 0.90625 0.234375 
0.375 0.90625 0.203125 0.390625 1.20312 0.5625 0.390625 1.20312 0.546875 
0.375 1.10938 0.8125 0.375 1.10938 0.828125 0.53125 1.09375 0.953125 
0.546875 1.125 0.953125 0.5 1.09375 0 0.484375 1.125 0.015625 
0.453125 1.21875 0.609375 0.515625 1.10938 0.90625 0.46875 0.90625 0.265625 

METADATA
INFORMATION 2
NAME L2_NORM_RANGE LOCATION vtkDataArray
DATA 2 0.651958 1.59597 
NAME L2_NORM_FINITE_RANGE LOCATION vtkDataArray
DATA 2 0.651958 1.59597 

CELL_TYPES 0

POINT_DATA 54
SCALARS CriticalType int
LOOKUP_TABLE default
3 2 3 3 2 3 3 2 3 
2 3 2 3 2 3 3 2 3 
2 3 3 2 3 2 3 2 3 
2 3 2 3 2 0 1 0 1 
0 0 1 0 1 0 1 0 1 
0 1 0 1 0 1 2 2 2 

METADATA
INFORMATION 0

FIELD FieldData 5
NodeId 1 54 int
0 1 2 3 4 5 6 7 8 
9 10 11 12 13 14 15 16 17 
18 19 20 21 22 23 24 25 26 
27 28 29 30 31 32 33 34 35 
36 37 38 39 40 41 42 43 44 
45 46 47 48 49 50 51 52 53 

METADATA
INFORMATION 0

Scalar 1 54 float
0.682294 0.603119 0.65098 0.598485 0.52082 0.592579 0.552409 0.50287 0.544242 
0.520734 0.541982 0.503497 0.539711 0.516602 0.529945 0.525143 0.488341 0.488716 
0.443678 0.484086 0.472313 0.446474 0.431894 0.409916 0.272459 0.188946 0.271765 
0.186831 0.233791 0.184418 0.233651 0.186341 0 0.0499119 0.000697176 0.0287847 
0.000891715 0.00735264 0.0312549 0.0118141 0.0366846 0.0342664 0.0789621 0.0343988 0.0593552 
0.121252 0.145085 0.134961 0.16239 0.183959 0.258609 0.519812 0.497439 0.398762 

METADATA
INFORMATION 0

VertexId 1 54 int
381983 422813 439454 283168 299550 316125 258334 266591 331999 
340255 512540 504223 323615 323743 487584 347742 356062 12445 
36959 44960 503710 495583 3679 3807 387234 428383 403611 
420190 2203 141467 2210 149666 1886 237932 471632 267170 
315949 397673 364970 405781 397588 126617 110232 299865 291673 
430552 438744 504226 504355 4512 12831 324509 479713 143006 

METADATA
INFORMATION 0

RegionSize 1 54 int
131 537 51 27 3 33 9 75 2 
9 12 10 6 166 7 7 775 22 
60 12 5 1161 7 46 467 152 589 
44 106 2469 81 190 6464 136450 27969 13920 
31207 49 33799 2 221804 16 14280 3 18696 
7 1895 5 2469 12 6362 32 135 6362 

METADATA
INFORMATION 0

RegionSpan 1 54 int
0 0 0 0 0 0 0 0 0 
0 0 0 0 0 0 0 0 0 
0 0 0 0 0 0 0 0 0 
0 0 0 0 0 0 1 0 0 
0 0 0 0 1 0 0 0 0 
0 0 0 0 0 0 0 0 0 

METADATA
INFORMATION 0

