# vtk DataFile Version 4.2
vtk output
ASCII
DATASET UNSTRUCTURED_GRID
POINTS 56 float
0.484375 1.20312 0.71875 0.484375 1.23438 0.75 0.46875 1.14062 0.90625 
0.46875 1.20312 0.828125 0.5 1.23438 0.765625 0.453125 1.125 0.671875 
0.46875 1.07812 0.640625 0.484375 1.15625 0.609375 0.453125 1.20312 0.796875 
0.46875 1.21875 0.796875 0.453125 1.07812 0.515625 0.46875 1.03125 0.46875 
0.46875 1.01562 0.828125 0.46875 1.03125 0.84375 0.484375 1.34375 0.765625 
0.5 1.29688 0.765625 0.5 1.34375 0.6875 0.484375 1.32812 0.6875 
0.484375 1.04688 0 0.484375 1.01562 0.03125 0.484375 1 0.4375 
0.46875 1 0.046875 0.484375 0.90625 0.578125 0.484375 0.890625 0.59375 
0.484375 0.953125 0.09375 0.46875 0.953125 0.078125 0.421875 0.53125 0.734375 
0.46875 0.578125 0.734375 0.53125 0.53125 0.71875 0.53125 0.53125 0.21875 
0.421875 0.53125 0 0.421875 0.53125 0.28125 0.53125 0.53125 0 
0.46875 1.26562 0 0.5 1.875 0.34375 0.46875 0.453125 0 
0.21875 0.125 0.15625 0.703125 1.125 0.921875 0.546875 1.20312 0 
0.25 1.10938 0.90625 0.359375 1.15625 0.625 0.328125 1.15625 0.578125 
0.53125 1.20312 0.53125 0.515625 1.20312 0.53125 0.359375 1.0625 0.5625 
0.34375 1.07812 0.546875 0.546875 1.20312 0.953125 0.546875 1.20312 0.96875 
0.5625 0.890625 0.25 0.578125 0.890625 0.25 0.40625 0.890625 0.234375 
0.375 0.875 0.21875 0.453125 1.15625 0.703125 0.515625 1.01562 0.5625 
0.484375 0.578125 0.75 0.46875 0.890625 0.21875 
METADATA
INFORMATION 2
NAME L2_NORM_RANGE LOCATION vtkDataArray
DATA 2 0.296464 1.97073 
NAME L2_NORM_FINITE_RANGE LOCATION vtkDataArray
DATA 2 0.296464 1.97073 

CELL_TYPES 0

POINT_DATA 56
SCALARS CriticalType int
LOOKUP_TABLE default
3 2 3 2 3 3 2 3 3 
2 3 2 3 2 3 2 3 2 
3 2 3 3 3 2 3 2 3 
2 3 2 3 2 3 3 2 0 
1 0 1 0 0 1 0 1 0 
1 0 1 0 1 0 1 2 2 
2 2 
METADATA
INFORMATION 0

FIELD FieldData 5
NodeId 1 56 int
0 1 2 3 4 5 6 7 8 
9 10 11 12 13 14 15 16 17 
18 19 20 21 22 23 24 25 26 
27 28 29 30 31 32 33 34 35 
36 37 38 39 40 41 42 43 44 
45 46 47 48 49 50 51 52 53 
54 55 
METADATA
INFORMATION 0

Scalar 1 56 float
0.664918 0.591261 0.623371 0.561634 0.621199 0.620526 0.565222 0.607553 0.602563 
0.572587 0.570911 0.48524 0.567152 0.533278 0.565212 0.5196 0.556128 0.530593 
0.530276 0.490545 0.521993 0.517329 0.496941 0.474123 0.478001 0.429305 0.272097 
0.190143 0.271964 0.189758 0.240364 0.189463 0.23321 0.081695 0.0502743 0 
0.0499085 0.000748068 0.0242378 0.00106841 0.00851083 0.0316251 0.0112392 0.0485251 0.0203452 
0.0472403 0.0250448 0.0659759 0.0366162 0.0672357 0.0430129 0.0798545 0.556855 0.466967 
0.188506 0.403093 
METADATA
INFORMATION 0

VertexId 1 56 int
381791 398303 479838 439134 406496 356893 340318 324255 422749 
422814 274781 250014 438366 446622 406943 406752 365984 365919 
4319 20575 233503 28702 306847 314975 53087 44894 387227 
387422 379042 116898 2203 149659 2210 5214 187936 1886 
82446 487981 4963 479696 332439 307861 283490 283489 299287 
291158 504675 512867 134756 134757 126554 118296 373405 299105 
395615 118366 
METADATA
INFORMATION 0

RegionSize 1 56 int
39 34 60 27 8 11 31 19 5 
33 56 36 10 29 3 586 2 114 
11 70 11 4 12 132 13 74 548 
52 461 19 76 75 66 6172 54366 6913 
54366 13210 44458 12251 9 147110 0 75303 5 
29326 0 1231 8 8054 8 18641 221 1336 
18641 9625 
METADATA
INFORMATION 0

RegionSpan 1 56 int
0 0 0 0 0 0 0 0 0 
0 0 0 0 0 0 0 0 0 
0 0 0 0 0 0 0 0 0 
0 0 0 0 0 0 0 1 0 
1 0 0 0 0 0 0 1 0 
0 0 0 0 0 0 0 0 0 
0 0 
METADATA
INFORMATION 0

