# vtk DataFile Version 4.2
vtk output
ASCII
DATASET UNSTRUCTURED_GRID
POINTS 102 float
0.46875 1.39062 0.75 0.46875 1.34375 0.71875 0.46875 1.35938 0.703125 
0.484375 1.15625 0.9375 0.453125 1.14062 0.90625 0.484375 1.1875 0.8125 
0.484375 1.20312 0.8125 0.46875 1.17188 0.671875 0.46875 1.20312 0.671875 
0.46875 1 0.765625 0.484375 0.953125 0.78125 0.4375 1.34375 0.8125 
0.453125 1.35938 0.828125 0.46875 0.953125 0.796875 0.484375 1.15625 0.5625 
0.5 1.1875 0.5625 0.515625 1.23438 0.578125 0.484375 1.03125 0.71875 
0.46875 0.875 0.75 0.46875 1.0625 0.875 0.46875 1.07812 0.859375 
0.46875 1.3125 0.875 0.4375 1.3125 0.84375 0.453125 1.10938 0.875 
0.453125 1.125 0.46875 0.515625 1.125 0.515625 0.453125 1.0625 0.0625 
0.453125 1.01562 0.09375 0.484375 0.921875 0.59375 0.46875 0.890625 0.609375 
0.484375 1.09375 0.625 0.46875 1.125 0.625 0.484375 0.9375 0.546875 
0.484375 0.953125 0.5625 0.484375 1.03125 0.390625 0.453125 1.04688 0.40625 
0.46875 0.921875 0.515625 0.46875 0.984375 0.515625 0.46875 0.953125 0.015625 
0.46875 0.984375 0.046875 0.484375 1 0.140625 0.46875 1 0.328125 
0.46875 0.96875 0.3125 0.46875 0.96875 0.203125 0.46875 0.890625 0.390625 
0.46875 0.921875 0.390625 0.40625 1.125 0.984375 0.421875 1.09375 0.984375 
0.53125 0.53125 0.734375 0.484375 0.578125 0.75 0.421875 0.53125 0.765625 
0.46875 0.578125 0.734375 0.421875 0.53125 0 0.421875 0.53125 0.265625 
0.53125 0.53125 0 0.53125 0.53125 0.234375 0.46875 0.453125 0 
0.65625 0.078125 0.3125 0.265625 1.25 0.59375 0.609375 1.25 0.984375 
0.625 1.17188 0.6875 0.640625 1.1875 0.671875 0.53125 1.28125 0.984375 
0.453125 1.3125 0.953125 0.453125 1.3125 0.96875 0.5625 0.953125 0.234375 
0.59375 0.953125 0.234375 0.484375 1.32812 0.9375 0.5 1.32812 0.953125 
0.375 1.125 0.578125 0.328125 1.125 0.546875 0.390625 0.953125 0.234375 
0.359375 0.96875 0.171875 0.4375 1.15625 0.96875 0.453125 1.17188 0.96875 
0.515625 1.14062 0.484375 0.53125 1.125 0.46875 0.53125 1.125 0.484375 
0.5625 1.10938 0.515625 0.515625 1.09375 0.453125 0.53125 1.09375 0.46875 
0.53125 1.0625 0.0625 0.5625 1.0625 0 0.40625 1.01562 0.390625 
0.390625 0.96875 0.390625 0.453125 1.1875 0.96875 0.5625 1.21875 0.609375 
0.5625 1.1875 0.59375 0.453125 1.15625 0 0.4375 1.1875 0 
0.546875 1.26562 0.828125 0.546875 1.25 0.828125 0.375 1.20312 0.71875 
0.40625 1.17188 0.703125 0.46875 1.34375 0.796875 0.46875 1.40625 0.8125 
0.453125 1.14062 0.609375 0.453125 1.125 0.859375 0.484375 1 0.359375 
0.421875 1.14062 0.9375 0.46875 1.0625 0.78125 0.46875 0.984375 0.171875 

METADATA
INFORMATION 2
NAME L2_NORM_RANGE LOCATION vtkDataArray
DATA 2 0.651958 1.70949 
NAME L2_NORM_FINITE_RANGE LOCATION vtkDataArray
DATA 2 0.651958 1.70949 

CELL_TYPES 0

POINT_DATA 102
SCALARS CriticalType int
LOOKUP_TABLE default
3 2 3 3 2 3 2 3 2 
3 2 3 2 3 3 2 3 3 
2 3 2 3 2 3 3 2 3 
2 3 2 3 2 3 2 3 2 
3 2 3 2 3 3 2 3 3 
2 3 2 3 2 3 2 3 2 
3 2 0 1 0 1 0 1 0 
0 1 0 1 0 1 0 1 0 
1 0 1 0 1 0 1 0 1 
0 1 0 1 0 0 1 0 1 
0 1 0 1 0 1 2 2 2 
1 2 2 
METADATA
INFORMATION 0

FIELD FieldData 5
NodeId 1 102 int
0 1 2 3 4 5 6 7 8 
9 10 11 12 13 14 15 16 17 
18 19 20 21 22 23 24 25 26 
27 28 29 30 31 32 33 34 35 
36 37 38 39 40 41 42 43 44 
45 46 47 48 49 50 51 52 53 
54 55 56 57 58 59 60 61 62 
63 64 65 66 67 68 69 70 71 
72 73 74 75 76 77 78 79 80 
81 82 83 84 85 86 87 88 89 
90 91 92 93 94 95 96 97 98 
99 100 101 
METADATA
INFORMATION 0

Scalar 1 102 float
0.688715 0.645623 0.686489 0.631854 0.504194 0.620259 0.597753 0.613562 0.591886 
0.602352 0.529405 0.571309 0.517391 0.571306 0.568402 0.54122 0.56619 0.560704 
0.526299 0.554722 0.508372 0.542435 0.510354 0.534802 0.534385 0.459738 0.529132 
0.416104 0.522662 0.488518 0.510916 0.486854 0.501967 0.474208 0.494519 0.430004 
0.473161 0.449911 0.469782 0.405011 0.459764 0.449112 0.408154 0.431403 0.39891 
0.374489 0.332013 0.272577 0.272431 0.189555 0.272213 0.191289 0.234883 0.189787 
0.233712 0.189294 0 0.049896 0.000602935 0.0303084 0.00416842 0.0322596 0.00551507 
0.0195856 0.053419 0.033828 0.0785512 0.0346076 0.0674315 0.0367515 0.0669068 0.0436313 
0.0837365 0.0910036 0.144 0.0926338 0.133694 0.0949612 0.127567 0.0956187 0.134521 
0.100855 0.152558 0.112439 0.138892 0.113016 0.156421 0.178477 0.159524 0.203175 
0.167088 0.196947 0.201731 0.224639 0.318517 0.355341 0.47569 0.5023 0.408055 
0.157138 0.525612 0.399151 
METADATA
INFORMATION 0

VertexId 1 102 int
398942 382366 374238 496287 479837 430879 430943 357086 357214 
405534 413535 431516 439773 421726 299679 299808 308193 381087 
396830 463134 455006 464158 447772 463325 250397 274977 37149 
53341 315103 323166 332191 332318 290591 298847 209055 217309 
274142 274398 12126 28638 77855 176158 167838 110494 208478 
208606 520730 520603 387234 395615 403611 387422 2203 141467 
2210 125090 1886 164202 316433 521255 365288 357161 521378 
505117 513309 126820 126822 496991 505184 307736 291349 126809 
94103 512668 512733 258657 250402 258594 274916 242081 250274 
37154 4388 208986 208793 512797 324516 316196 4765 4892 
439395 439331 381784 373466 423326 431774 324189 455197 192543 
496219 413982 94174 
METADATA
INFORMATION 0

RegionSize 1 102 int
13 103 24 95 3 1 39 1 439 
18 7 21 116 8 6 75 5 24 
1 3 87 4 22 3 51 281 84 
46 9 27 1 255 3 360 22 683 
6 536 37 16 18 10 0 16 5 
944 6 3020 458 25 547 143 81 25 
70 1249 6765 95998 85063 11602 8 239989 54 
0 36109 17 2299 0 7767 11 513 22 
11746 13 6 3 129 5 1021 4 653 
31 582 13 1911 0 3 1249 5 1445 
0 412 9 3020 8 944 34 239 291 
2856 120 1024 
METADATA
INFORMATION 0

RegionSpan 1 102 int
0 0 0 0 0 0 0 0 0 
0 0 0 0 0 0 0 0 0 
0 0 0 0 0 0 0 0 0 
0 0 0 0 0 0 0 0 0 
0 0 0 0 0 0 0 0 0 
0 0 0 0 0 0 0 0 0 
0 0 0 1 0 0 0 1 0 
0 0 0 0 0 0 0 0 0 
0 0 0 0 0 0 0 0 0 
0 0 0 0 0 0 0 0 0 
0 0 0 0 0 0 0 0 0 
0 0 0 
METADATA
INFORMATION 0

