# vtk DataFile Version 4.2
vtk output
ASCII
DATASET UNSTRUCTURED_GRID
POINTS 46 float
0.484375 1.125 0.703125 0.46875 1.09375 0.71875 0.484375 1.07812 0.734375 
0.484375 1.125 0.796875 0.46875 1.125 0.75 0.484375 1.0625 0.609375 
0.484375 1.0625 0.640625 0.484375 1 0 0.484375 0.9375 0.078125 
0.484375 0.9375 0.921875 0.46875 0.9375 0.9375 0.484375 0.921875 0.546875 
0.46875 0.953125 0.546875 0.484375 0.921875 0.078125 0.484375 0.8125 0.96875 
0.46875 0.796875 0.953125 0.453125 0.828125 0 0.46875 0.796875 0.015625 
0.484375 0.8125 0.03125 0.53125 0.53125 0.765625 0.484375 0.578125 0.71875 
0.421875 0.53125 0.71875 0.46875 0.578125 0.796875 0.53125 0.53125 0.015625 
0.53125 0.53125 0.21875 0.421875 0.53125 0 0.421875 0.53125 0.1875 
0.46875 0.453125 0 0.390625 0.0625 0.234375 0.71875 1.03125 0.765625 
0.65625 1.03125 0.78125 0.265625 1.04688 0.890625 0.515625 1.15625 0.953125 
0.546875 0.84375 0.234375 0.5625 0.859375 0.28125 0.609375 1.04688 0.65625 
0.625 1.03125 0.71875 0.640625 1.03125 0.75 0.34375 1.01562 0.6875 
0.328125 0.984375 0.734375 0.59375 1.09375 0.875 0.59375 1.07812 0.859375 
0.40625 0.84375 0.25 0.390625 0.859375 0.234375 0.484375 0.859375 0.25 
0.46875 0.84375 0 
METADATA
INFORMATION 2
NAME L2_NORM_RANGE LOCATION vtkDataArray
DATA 2 0.459811 1.58469 
NAME L2_NORM_FINITE_RANGE LOCATION vtkDataArray
DATA 2 0.459811 1.58469 

CELL_TYPES 0

POINT_DATA 46
SCALARS CriticalType int
LOOKUP_TABLE default
3 2 3 3 2 3 2 3 2 
3 2 3 2 3 3 2 3 2 
3 3 2 3 2 3 2 3 2 
0 1 0 1 0 1 0 1 0 
1 0 0 1 0 1 0 1 2 
2 
METADATA
INFORMATION 0

FIELD FieldData 5
NodeId 1 46 int
0 1 2 3 4 5 6 7 8 
9 10 11 12 13 14 15 16 17 
18 19 20 21 22 23 24 25 26 
27 28 29 30 31 32 33 34 35 
36 37 38 39 40 41 42 43 44 
45 
METADATA
INFORMATION 0

Scalar 1 46 float
0.671727 0.620119 0.656808 0.64356 0.586429 0.60284 0.567692 0.511608 0.435135 
0.472544 0.443379 0.460633 0.436933 0.456889 0.444572 0.415735 0.396177 0.360829 
0.386704 0.273098 0.189113 0.273038 0.189838 0.236667 0.186864 0.233767 0.188373 
0 0.0499084 0.000562618 0.0325198 0.00176871 0.0387789 0.00599993 0.0652557 0.00624279 
0.0303441 0.00779838 0.0125307 0.040043 0.0226349 0.0466441 0.0252277 0.0711981 0.387235 
0.355449 
METADATA
INFORMATION 0

VertexId 1 46 int
373279 381342 389471 422431 397854 323871 340255 4127 44831 
487199 495390 290527 290654 44767 511263 503006 3421 11486 
19743 403618 379231 379035 420190 10402 116898 2203 100507 
1886 123161 405678 413866 471249 504481 126371 151012 348391 
381096 397481 364630 389077 463270 455014 134554 126425 134623 
3486 
METADATA
INFORMATION 0

RegionSize 1 46 int
17 49 15 56 78 14 1201 46 119 
18 99 9 355 3 5 635 18 3 
3 451 52 567 44 74 20831 74 128 
6458 166179 31876 21362 48077 9667 14 4890 15 
5 18 38 78444 1 124329 12 20831 959 
6934 
METADATA
INFORMATION 0

RegionSpan 1 46 int
0 0 0 0 0 0 0 0 0 
0 0 0 0 0 0 0 0 0 
0 0 0 0 0 0 0 0 0 
0 0 0 0 0 0 0 0 0 
0 0 0 0 0 1 0 0 0 
0 
METADATA
INFORMATION 0

