# vtk DataFile Version 4.2
vtk output
ASCII
DATASET UNSTRUCTURED_GRID
POINTS 121 float
0.46875 1.39062 0.703125 0.46875 1.40625 0.71875 0.46875 1.4375 0.75 
0.484375 1.4375 0.734375 0.484375 1.39062 0.734375 0.484375 1.17188 0.9375 
0.453125 1.15625 0.859375 0.484375 1.21875 0.8125 0.515625 1.32812 0.796875 
0.46875 1.04688 0.765625 0.46875 1.09375 0.78125 0.46875 1 0.796875 
0.484375 0.953125 0.78125 0.484375 1.07812 0.71875 0.484375 1.09375 0.734375 
0.484375 1.15625 0.671875 0.484375 1.17188 0.6875 0.4375 1.39062 0.8125 
0.453125 1.39062 0.828125 0.484375 1.20312 0.578125 0.515625 1.21875 0.578125 
0.46875 1.09375 0.875 0.46875 1.10938 0.859375 0.515625 1.23438 0.578125 
0.53125 1.32812 0.59375 0.515625 1.29688 0.59375 0.484375 0.9375 0.59375 
0.46875 0.921875 0.609375 0.453125 1.1875 0.65625 0.453125 1.20312 0.65625 
0.453125 1.14062 0.46875 0.515625 1.125 0.515625 0.4375 1.07812 0.078125 
0.484375 1.09375 0.046875 0.484375 1.34375 0.875 0.453125 1.34375 0.859375 
0.484375 0.953125 0.546875 0.484375 0.90625 0.546875 0.4375 1.1875 0.640625 
0.4375 1.1875 0.625 0.46875 1.14062 0.625 0.46875 1.14062 0.640625 
0.484375 1.04688 0.390625 0.453125 1.0625 0.421875 0.46875 0.9375 0.515625 
0.46875 1 0.5 0.46875 0.96875 0.015625 0.46875 0.984375 0.046875 
0.515625 1.14062 0 0.484375 1.01562 0.140625 0.46875 1.01562 0.078125 
0.484375 0.921875 0.4375 0.484375 0.9375 0.453125 0.46875 1 0.328125 
0.484375 0.984375 0.1875 0.515625 1.14062 0.421875 0.515625 1.125 0.421875 
0.53125 1.14062 0.4375 0.53125 1.125 0.4375 0.53125 1.125 0.421875 
0.40625 1.14062 0.984375 0.4375 1.10938 0.984375 0.578125 1.28125 0.5625 
0.5625 1.28125 0.5625 0.53125 0.53125 0.734375 0.484375 0.578125 0.75 
0.421875 0.53125 0.765625 0.46875 0.578125 0.734375 0.421875 0.53125 0 
0.421875 0.53125 0.265625 0.53125 0.53125 0 0.53125 0.53125 0.234375 
0.46875 0.453125 0 0.53125 0.0625 0.21875 0.734375 1.23438 0.609375 
0.625 1.21875 0.6875 0.625 1.1875 0.6875 0.625 1.23438 0.84375 
0.625 1.20312 0.828125 0.390625 1.17188 0.578125 0.390625 1.15625 0.578125 
0.296875 1.14062 0.734375 0.28125 1.15625 0.75 0.40625 1.35938 0.53125 
0.40625 1.35938 0.515625 0.390625 1.35938 0.546875 0.390625 1.34375 0.546875 
0.625 1.21875 0.953125 0.625 1.20312 0.953125 0.375 1.14062 0.578125 
0.578125 0.96875 0.25 0.59375 0.96875 0.234375 0.4375 1.17188 0.96875 
0.4375 1.1875 0.96875 0.390625 0.96875 0.203125 0.359375 0.96875 0.171875 
0.4375 1.1875 0.953125 0.515625 1.09375 0.453125 0.546875 1.14062 0.5 
0.53125 1.07812 0.0625 0.5625 1.0625 0 0.546875 1.125 0.5 
0.40625 1.01562 0.375 0.375 0.96875 0.34375 0.5 1.17188 0.46875 
0.5 1.1875 0.46875 0.46875 1.17188 0 0.453125 1.20312 0 
0.5625 1.23438 0.609375 0.578125 1.23438 0.625 0.484375 1.17188 0.453125 
0.484375 1.1875 0.453125 0.375 1.23438 0.71875 0.390625 1.20312 0.71875 
0.46875 1.39062 0.796875 0.46875 1.42188 0.796875 0.328125 1.125 0.53125 
0.40625 1.14062 0.921875 0.5625 1.15625 0.5 0.4375 1.17188 0.609375 
0.484375 1 0.359375 
METADATA
INFORMATION 2
NAME L2_NORM_RANGE LOCATION vtkDataArray
DATA 2 0.577914 1.69601 
NAME L2_NORM_FINITE_RANGE LOCATION vtkDataArray
DATA 2 0.577914 1.69601 

CELL_TYPES 0

POINT_DATA 121
SCALARS CriticalType int
LOOKUP_TABLE default
3 2 3 2 3 3 2 3 2 
3 2 3 2 3 2 3 2 3 
2 3 2 3 2 3 3 2 3 
2 3 2 3 2 3 2 3 2 
3 2 3 2 3 2 3 2 3 
2 3 2 3 3 2 3 2 3 
2 3 4 3 2 3 3 2 3 
2 3 2 3 2 3 2 3 2 
0 1 0 1 0 0 1 0 1 
0 1 0 1 0 1 0 1 0 
0 1 0 1 0 1 0 0 1 
0 1 0 0 1 0 1 0 1 
0 1 0 1 0 1 0 1 1 
1 1 2 2 
METADATA
INFORMATION 0

FIELD FieldData 5
NodeId 1 121 int
0 1 2 3 4 5 6 7 8 
9 10 11 12 13 14 15 16 17 
18 19 20 21 22 23 24 25 26 
27 28 29 30 31 32 33 34 35 
36 37 38 39 40 41 42 43 44 
45 46 47 48 49 50 51 52 53 
54 55 56 57 58 59 60 61 62 
63 64 65 66 67 68 69 70 71 
72 73 74 75 76 77 78 79 80 
81 82 83 84 85 86 87 88 89 
90 91 92 93 94 95 96 97 98 
99 100 101 102 103 104 105 106 107 
108 109 110 111 112 113 114 115 116 
117 118 119 120 
METADATA
INFORMATION 0

Scalar 1 121 float
0.691025 0.641903 0.66659 0.63779 0.666198 0.648972 0.501723 0.634359 0.601549 
0.619775 0.534618 0.583665 0.531896 0.580314 0.529443 0.575645 0.550124 0.55856 
0.528811 0.557339 0.530618 0.554515 0.519011 0.554497 0.539802 0.516719 0.53301 
0.492867 0.531902 0.501457 0.528891 0.452741 0.527736 0.431881 0.512046 0.489151 
0.501152 0.471087 0.496698 0.468794 0.48695 0.463051 0.486077 0.43638 0.484202 
0.446154 0.475321 0.410082 0.466935 0.46193 0.410082 0.458548 0.436243 0.456218 
0.409995 0.351941 0.313654 0.342933 0.31425 0.337109 0.333445 0.261904 0.333093 
0.310919 0.272448 0.189416 0.27233 0.191085 0.234858 0.189714 0.233742 0.18932 
0 0.0498839 0.000223466 0.0304926 0.00378762 0.00963252 0.0390645 0.0108313 0.0615748 
0.0125115 0.0436805 0.0146393 0.0466202 0.0162246 0.0484722 0.0166624 0.039522 0.0388446 
0.0502438 0.0800239 0.0555239 0.0957354 0.0582754 0.0879847 0.0684699 0.0848065 0.124056 
0.0860507 0.150032 0.0996483 0.100486 0.130219 0.13686 0.184094 0.142577 0.181443 
0.161239 0.189809 0.185415 0.208204 0.197727 0.230847 0.31742 0.341764 0.0691671 
0.145 0.124614 0.470123 0.400705 
METADATA
INFORMATION 0

VertexId 1 121 int
374366 382622 399134 390943 390751 496351 455325 431007 423265 
405726 414110 421918 413535 381279 389535 357023 365279 431708 
439901 308063 308129 463262 455134 308193 316770 316641 315167 
323294 348957 349021 250461 274977 45404 29087 464287 456093 
290655 290463 340764 332572 332382 340574 209119 225565 274206 
266270 12190 28638 4705 77919 45150 233183 241439 176158 
102367 225889 225825 234082 234018 225826 520794 520668 300197 
300196 387234 395615 403611 387422 2203 141467 2210 125090 
1886 114978 324591 365480 365352 447464 439144 307929 307865 
389715 397970 284122 275930 292313 292249 504744 504680 307800 
135077 126886 512732 512796 110489 94103 504604 242081 266851 
37218 4388 266787 200794 184216 250592 250656 4830 4957 
324580 332773 242399 242463 381912 381785 423518 423646 283157 
488026 266916 324316 192543 
METADATA
INFORMATION 0

RegionSize 1 121 int
29 1 2 81 12 115 7 16 294 
28 29 14 29 15 7 3 112 10 
149 6 14 3 255 4 8 52 15 
67 0 157 62 196 40 35 3 424 
4 29 0 156 0 277 17 4 15 
329 34 0 13 27 1 2 1067 35 
72 0 177 0 0 0 9 2045 0 
3037 460 14 544 130 80 34 70 598 
6211 132785 90916 62262 6 21 4145 2 7 
6 41299 0 36207 0 47063 0 55275 10 
10 3197 1 27 19 9965 0 16 0 
40 4196 0 18 2277 0 598 7 346 
2 130 0 1553 4 2045 5 2944 6942 
727 984 49 2944 
METADATA
INFORMATION 0

RegionSpan 1 121 int
0 0 0 0 0 0 0 0 0 
0 0 0 0 0 0 0 0 0 
0 0 0 0 0 0 0 0 0 
0 0 0 0 0 0 0 0 0 
0 0 0 0 0 0 0 0 0 
0 0 0 0 0 0 0 0 0 
0 0 0 0 0 0 0 0 0 
0 0 0 0 0 0 0 0 0 
0 1 0 0 0 0 0 0 0 
0 0 0 0 0 1 0 0 0 
0 0 0 0 0 0 0 0 0 
0 0 0 0 0 0 0 0 0 
0 0 0 0 0 0 0 0 0 
0 0 0 0 
METADATA
INFORMATION 0

