# vtk DataFile Version 4.2
vtk output
ASCII
DATASET UNSTRUCTURED_GRID
POINTS 60 float
0.484375 1.17188 0.734375 0.484375 1.21875 0.796875 0.453125 1.17188 0.671875 
0.46875 1.10938 0.640625 0.46875 1.15625 0.875 0.453125 1.23438 0.8125 
0.46875 1.15625 0.625 0.453125 1.23438 0.796875 0.453125 1.09375 0.515625 
0.46875 1.03125 0.46875 0.46875 1.04688 0.828125 0.46875 1.09375 0.84375 
0.484375 1.375 0.765625 0.5 1.35938 0.765625 0.484375 1.07812 0 
0.484375 1.01562 0.03125 0.46875 0.9375 0.65625 0.46875 0.953125 0.640625 
0.484375 1.01562 0.4375 0.46875 1.01562 0.046875 0.46875 0.96875 0.9375 
0.46875 0.875 0.9375 0.484375 0.96875 0.09375 0.484375 0.96875 0.078125 
0.46875 0.890625 0.53125 0.46875 0.96875 0.5 0.40625 1.21875 0.765625 
0.421875 1.21875 0.765625 0.421875 0.53125 0.734375 0.421875 0.53125 0.28125 
0.53125 0.53125 0.71875 0.53125 0.53125 0.21875 0.421875 0.53125 0 
0.53125 0.53125 0 0.46875 1.28125 0 0.53125 1.96875 0.21875 
0.46875 0.453125 0 0.234375 0.046875 0.3125 0.734375 1.10938 0.71875 
0.34375 1.1875 0.59375 0.515625 1.23438 0.96875 0.4375 1.23438 0.984375 
0.359375 1.17188 0.625 0.359375 1.09375 0.53125 0.328125 1.07812 0.53125 
0.515625 1.23438 0.53125 0.5 1.23438 0.515625 0.5625 0.90625 0.25 
0.578125 0.90625 0.25 0.546875 1.21875 0.953125 0.546875 1.21875 0.96875 
0.390625 0.90625 0.234375 0.375 0.90625 0.1875 0.484375 1.375 0.734375 
0.40625 1.35938 0.734375 0.453125 1.21875 0.703125 0.515625 1.10938 0.5625 
0.46875 0.578125 0.734375 0.484375 0.578125 0.75 0.46875 0.90625 0.21875 

METADATA
INFORMATION 2
NAME L2_NORM_RANGE LOCATION vtkDataArray
DATA 2 0.393427 2.05087 
NAME L2_NORM_FINITE_RANGE LOCATION vtkDataArray
DATA 2 0.393427 2.05087 

CELL_TYPES 0

POINT_DATA 60
SCALARS CriticalType int
LOOKUP_TABLE default
3 2 3 2 3 2 3 3 3 
2 3 2 3 2 3 2 3 2 
3 3 3 2 3 2 3 2 3 
2 3 2 3 2 3 3 3 2 
0 1 0 1 0 1 0 0 1 
0 1 0 1 0 1 0 1 0 
1 2 2 2 2 2 
METADATA
INFORMATION 0

FIELD FieldData 5
NodeId 1 60 int
0 1 2 3 4 5 6 7 8 
9 10 11 12 13 14 15 16 17 
18 19 20 21 22 23 24 25 26 
27 28 29 30 31 32 33 34 35 
36 37 38 39 40 41 42 43 44 
45 46 47 48 49 50 51 52 53 
54 55 56 57 58 59 
METADATA
INFORMATION 0

Scalar 1 60 float
0.670934 0.562783 0.625498 0.577788 0.619595 0.546451 0.602865 0.59432 0.59228 
0.493658 0.581553 0.544762 0.548859 0.507642 0.52988 0.472165 0.529879 0.505395 
0.523898 0.520967 0.486965 0.454275 0.48018 0.439846 0.474094 0.442339 0.470156 
0.446512 0.272072 0.190257 0.271745 0.1896 0.240442 0.233174 0.0864868 0.0501996 
0 0.0499037 0.000473262 0.032968 0.010042 0.0659629 0.0104697 0.0193377 0.0444205 
0.0217808 0.0488015 0.0308165 0.0669328 0.0400616 0.0653192 0.0651728 0.0868468 0.0944738 
0.122084 0.559015 0.486933 0.189927 0.188628 0.405846 
METADATA
INFORMATION 0

VertexId 1 60 int
389855 422815 357085 340446 463518 431069 332446 422877 274845 
250014 438494 446878 407071 407008 4447 20575 347934 339806 
233567 28766 495518 495134 53151 44959 282206 266142 406426 
406427 387227 149659 379042 116898 2203 2210 5278 122786 
1886 164047 381423 316182 512993 521180 332503 283031 282965 
283617 275424 134820 134821 504739 512931 126617 102040 390687 
390618 373661 299489 387422 395615 118430 
METADATA
INFORMATION 0

RegionSize 1 60 int
113 13 13 25 88 22 23 18 44 
18 13 449 2 23 26 39 6 266 
9 7 19 147 5 99 22 875 3 
85 548 5 462 13 76 67 6403 47868 
6931 47868 81615 102124 7 959 17 6 79427 
0 59940 7 11130 1 739 15 8668 15 
7931 71 614 118 7931 10253 
METADATA
INFORMATION 0

RegionSpan 1 60 int
0 0 0 0 0 0 0 0 0 
0 0 0 0 0 0 0 0 0 
0 0 0 0 0 0 0 0 0 
0 0 0 0 0 0 0 0 1 
0 1 0 0 0 0 0 0 0 
0 1 0 0 0 0 0 0 0 
0 0 0 0 0 0 
METADATA
INFORMATION 0

