# vtk DataFile Version 4.2
vtk output
ASCII
DATASET UNSTRUCTURED_GRID
POINTS 82 float
0.453125 1.28125 0.765625 0.453125 1.25 0.796875 0.46875 1.14062 0.796875 
0.46875 1.26562 0.5625 0.484375 1.1875 0.546875 0.484375 1.17188 0.90625 
0.453125 1.14062 0.859375 0.5 1.35938 0.6875 0.5 1.25 0.6875 
0.484375 1.125 0.671875 0.4375 1.45312 0.6875 0.453125 1.40625 0.703125 
0.484375 1.14062 0.515625 0.484375 1.0625 0.53125 0.484375 1.09375 0.515625 
0.453125 1.125 0.625 0.46875 1.15625 0.625 0.453125 1.10938 0 
0.453125 1.03125 0.046875 0.46875 1.01562 0.59375 0.484375 0.984375 0.59375 
0.484375 1.07812 0.859375 0.484375 1.09375 0.84375 0.484375 0.9375 0.875 
0.5 1.0625 0.875 0.46875 0.890625 0.640625 0.484375 0.96875 0.671875 
0.484375 0.96875 0.921875 0.484375 0.984375 0.90625 0.453125 1.0625 0.421875 
0.484375 1.07812 0.4375 0.484375 0.96875 0.59375 0.53125 1.26562 0.890625 
0.515625 1.25 0.890625 0.46875 1.09375 0.984375 0.453125 1.03125 0.984375 
0.484375 1.03125 0.078125 0.46875 0.921875 0.984375 0.484375 0.875 0.953125 
0.484375 1.01562 0.390625 0.484375 1.03125 0.390625 0.484375 0.921875 0.015625 
0.453125 0.984375 0 0.484375 0.96875 0.328125 0.484375 1 0.359375 
0.46875 0.90625 0.46875 0.46875 0.890625 0.484375 0.484375 0.875 0.046875 
0.484375 0.921875 0.03125 0.421875 0.53125 0.71875 0.46875 0.578125 0.703125 
0.53125 0.53125 0.75 0.484375 0.578125 0.75 0.421875 0.53125 0 
0.421875 0.53125 0.21875 0.53125 0.53125 0 0.53125 0.53125 0.234375 
0.46875 0.453125 0 0.734375 0.09375 0.359375 0.75 1.15625 0.796875 
0.421875 1.3125 0.953125 0.390625 1.3125 0.9375 0.375 1.09375 0.9375 
0.34375 1.09375 0.90625 0.5625 0.9375 0.25 0.578125 0.953125 0.203125 
0.390625 0.953125 0.25 0.359375 0.953125 0.25 0.421875 1.17188 0.921875 
0.4375 1.17188 0.921875 0.4375 1.1875 0.921875 0.515625 1.25 0.625 
0.515625 1.23438 0.625 0.53125 1.21875 0.625 0.546875 1.20312 0.625 
0.375 1.23438 0.78125 0.390625 1.17188 0.78125 0.46875 1.3125 0.734375 
0.5 1.21875 0.65625 0.453125 1.0625 0.609375 0.390625 1.14062 0.90625 
0.484375 0.9375 0.234375 
METADATA
INFORMATION 2
NAME L2_NORM_RANGE LOCATION vtkDataArray
DATA 2 0.651958 1.67603 
NAME L2_NORM_FINITE_RANGE LOCATION vtkDataArray
DATA 2 0.651958 1.67603 

CELL_TYPES 0

POINT_DATA 82
SCALARS CriticalType int
LOOKUP_TABLE default
3 2 3 3 2 3 2 3 2 
3 3 2 3 3 2 3 2 3 
2 3 2 3 2 3 2 3 2 
3 2 3 2 3 3 2 3 2 
3 3 2 3 2 3 2 3 2 
3 2 3 2 3 2 3 2 3 
2 3 2 0 1 0 1 0 0 
1 0 1 0 1 0 1 0 0 
1 0 1 0 1 2 2 2 1 
2 
METADATA
INFORMATION 0

FIELD FieldData 5
NodeId 1 82 int
0 1 2 3 4 5 6 7 8 
9 10 11 12 13 14 15 16 17 
18 19 20 21 22 23 24 25 26 
27 28 29 30 31 32 33 34 35 
36 37 38 39 40 41 42 43 44 
45 46 47 48 49 50 51 52 53 
54 55 56 57 58 59 60 61 62 
63 64 65 66 67 68 69 70 71 
72 73 74 75 76 77 78 79 80 
81 
METADATA
INFORMATION 0

Scalar 1 82 float
0.668678 0.620582 0.651522 0.61987 0.550702 0.611012 0.493064 0.606428 0.55435 
0.598556 0.585759 0.510911 0.573396 0.561901 0.527165 0.561154 0.506463 0.549869 
0.421822 0.534812 0.491285 0.53239 0.496225 0.530847 0.495272 0.527842 0.491789 
0.525437 0.482301 0.524964 0.46437 0.514497 0.499633 0.470381 0.493565 0.428376 
0.488075 0.475223 0.440082 0.471387 0.443089 0.458992 0.409377 0.453844 0.41692 
0.451142 0.42661 0.438583 0.408524 0.272587 0.191243 0.272389 0.190928 0.234015 
0.184036 0.233838 0.189267 0 0.0499049 0.000357827 0.0355746 0.0131164 0.0176332 
0.0589927 0.0193787 0.086195 0.0371226 0.0729551 0.0602391 0.0929918 0.0700948 0.0766281 
0.124691 0.0887701 0.122842 0.216425 0.255932 0.532834 0.533123 0.489144 0.0952261 
0.404921 
METADATA
INFORMATION 0

VertexId 1 82 int
406685 422941 422494 300126 291615 479967 455261 366048 365600 
356895 366428 374429 275039 282911 274847 332317 332446 4573 
28829 315486 315359 455007 446879 462623 463136 339550 356255 
487327 479199 225565 233823 315295 472162 472097 520606 520349 
45215 519902 503327 208991 209055 11999 4061 176031 192543 
249502 257630 28191 20191 379035 371038 395426 395615 2203 
116891 2210 125090 1886 188847 422576 505115 496921 496024 
479638 134948 110437 135001 134999 488155 488156 488220 332833 
332769 332706 332643 414680 414425 390430 349088 323869 479833 
126751 
METADATA
INFORMATION 0

RegionSize 1 82 int
55 239 11 15 47 38 21 49 81 
41 11 54 9 6 213 26 162 63 
52 6 0 6 13 29 42 23 56 
11 261 17 498 1 7 142 21 49 
55 9 309 6 73 15 4 19 383 
7 270 6 16 546 21 445 155 94 
7982 70 555 7091 127631 112075 218234 1 10 
17313 12 2976 15 6364 5 2 0 3 
7982 4 318 11 7841 55 0 126 6386 
7841 
METADATA
INFORMATION 0

RegionSpan 1 82 int
0 0 0 0 0 0 0 0 0 
0 0 0 0 0 0 0 0 0 
0 0 0 0 0 0 0 0 0 
0 0 0 0 0 0 0 0 0 
0 0 0 0 0 0 0 0 0 
0 0 0 0 0 0 0 0 0 
0 0 0 0 1 0 1 0 0 
0 0 0 0 0 0 0 0 0 
0 0 0 0 0 0 0 0 0 
0 
METADATA
INFORMATION 0

