# vtk DataFile Version 4.2
vtk output
ASCII
DATASET UNSTRUCTURED_GRID
POINTS 66 float
0.46875 1.20312 0.8125 0.46875 1.17188 0.796875 0.46875 1.15625 0.765625 
0.46875 1.07812 0.546875 0.484375 1.14062 0.65625 0.484375 1.17188 0.671875 
0.5 1.17188 0.703125 0.46875 0.9375 0.796875 0.46875 0.984375 0.796875 
0.515625 1.15625 0.921875 0.5 1.1875 0.90625 0.453125 1.03125 0 
0.46875 0.953125 0.046875 0.484375 0.953125 0.890625 0.46875 0.984375 0.890625 
0.46875 1.03125 0.984375 0.5 1.04688 0.953125 0.484375 0.96875 0.546875 
0.484375 0.984375 0.546875 0.46875 0.890625 0.59375 0.46875 0.90625 0.5625 
0.484375 0.953125 0.078125 0.46875 0.953125 0.109375 0.484375 0.859375 0.921875 
0.484375 0.890625 0.90625 0.484375 0.9375 0.390625 0.484375 0.953125 0.40625 
0.46875 0.921875 0.109375 0.40625 1.1875 0.71875 0.421875 1.1875 0.703125 
0.46875 0.828125 0.96875 0.46875 0.859375 0.953125 0.46875 0.890625 0.015625 
0.46875 0.90625 0.03125 0.53125 0.53125 0.75 0.484375 0.578125 0.75 
0.421875 0.53125 0.71875 0.46875 0.578125 0.703125 0.421875 0.53125 0 
0.421875 0.53125 0.21875 0.53125 0.53125 0 0.53125 0.53125 0.296875 
0.46875 0.453125 0 0.3125 0.078125 0.171875 0.234375 1.07812 0.65625 
0.546875 1.15625 0.984375 0.6875 1.09375 0.921875 0.578125 1.1875 0.59375 
0.59375 1.17188 0.578125 0.59375 1.10938 0.921875 0.609375 1.10938 0.9375 
0.359375 1.10938 0.609375 0.359375 1.09375 0.609375 0.59375 1.0625 0.5625 
0.609375 1.07812 0.5625 0.578125 1.125 0.9375 0.59375 1.125 0.9375 
0.40625 1.1875 0.90625 0.421875 1.1875 0.921875 0.40625 0.875 0.234375 
0.375 0.875 0.25 0.390625 1.17188 0.890625 0.375 1.17188 0.890625 
0.546875 0.875 0.234375 0.5625 0.875 0.203125 0.484375 0.890625 0.21875 

METADATA
INFORMATION 2
NAME L2_NORM_RANGE LOCATION vtkDataArray
DATA 2 0.365104 1.614 
NAME L2_NORM_FINITE_RANGE LOCATION vtkDataArray
DATA 2 0.365104 1.614 

CELL_TYPES 0

POINT_DATA 66
SCALARS CriticalType int
LOOKUP_TABLE default
3 2 3 3 2 3 2 3 2 
3 2 3 2 3 2 3 2 3 
2 3 2 3 2 3 2 3 2 
3 3 2 3 2 3 2 3 2 
3 2 3 2 3 2 0 1 0 
1 0 0 1 0 1 0 1 0 
1 0 1 0 1 0 1 0 1 
0 1 2 
METADATA
INFORMATION 0

FIELD FieldData 5
NodeId 1 66 int
0 1 2 3 4 5 6 7 8 
9 10 11 12 13 14 15 16 17 
18 19 20 21 22 23 24 25 26 
27 28 29 30 31 32 33 34 35 
36 37 38 39 40 41 42 43 44 
45 46 47 48 49 50 51 52 53 
54 55 56 57 58 59 60 61 62 
63 64 65 
METADATA
INFORMATION 0

Scalar 1 66 float
0.667043 0.622103 0.65066 0.606598 0.538757 0.604203 0.556304 0.566591 0.52882 
0.561658 0.53683 0.542585 0.435694 0.532097 0.485557 0.512189 0.487519 0.507523 
0.480101 0.505633 0.472807 0.495906 0.442988 0.487564 0.449732 0.474486 0.435458 
0.473402 0.441217 0.418991 0.440739 0.409299 0.428318 0.403971 0.273176 0.190054 
0.273009 0.190499 0.233949 0.18507 0.233556 0.188579 0 0.0499171 0.000671579 
0.0263015 0.001905 0.0108724 0.0372801 0.0163642 0.0417154 0.0166655 0.0386383 0.0208946 
0.0591159 0.0212649 0.0495309 0.0237991 0.0490956 0.0255181 0.0654964 0.029454 0.0550095 
0.0479492 0.0728389 0.397556 
METADATA
INFORMATION 0

VertexId 1 66 int
430942 422622 406174 291166 348767 357087 373472 421662 421854 
488097 480032 4253 28510 470879 471006 520350 504032 290719 
290783 314974 298654 44895 61278 486879 478815 208671 216927 
61150 381722 373531 511326 503262 11870 20126 395426 395615 
379035 371038 2203 116891 2210 157858 1886 90452 348495 
520867 487852 316197 307942 487910 496103 324055 323991 299302 
299367 496165 496166 480026 488219 126490 134680 471769 471768 
126499 110116 118367 
METADATA
INFORMATION 0

RegionSize 1 66 int
11 190 7 71 11 30 88 6 493 
7 67 50 74 11 88 12 32 8 
98 6 383 9 3 8 246 5 340 
5 3 235 11 286 2 12 450 110 
550 21 95 21137 75 328 6934 132926 15559 
68047 15789 5 9696 3 123941 1 29267 9 
9594 0 33608 0 25634 13 6067 0 12466 
8 21137 8981 
METADATA
INFORMATION 0

RegionSpan 1 66 int
0 0 0 0 0 0 0 0 0 
0 0 0 0 0 0 0 0 0 
0 0 0 0 0 0 0 0 0 
0 0 0 0 0 0 0 0 0 
0 0 0 0 0 0 0 1 0 
0 0 0 0 0 0 0 0 0 
0 0 1 0 0 0 0 0 0 
0 0 0 
METADATA
INFORMATION 0

