# vtk DataFile Version 4.2
vtk output
ASCII
DATASET UNSTRUCTURED_GRID
POINTS 72 float
0.484375 1.29688 0.75 0.5 1.32812 0.703125 0.484375 1.3125 0.6875 
0.484375 1.3125 0.828125 0.484375 1.25 0.765625 0.46875 1.3125 0.59375 
0.453125 1.3125 0.609375 0.484375 1.0625 0.734375 0.484375 1.09375 0.734375 
0.484375 1.1875 0.9375 0.484375 1.20312 0.90625 0.484375 1.15625 0.515625 
0.484375 1.21875 0.578125 0.5 1.28125 0.921875 0.484375 1.26562 0.90625 
0.484375 1.07812 0.890625 0.46875 0.921875 0.859375 0.484375 0.9375 0.84375 
0.484375 0.984375 0.84375 0.5 1.125 0.015625 0.484375 1.03125 0.078125 
0.515625 1.45312 0.8125 0.5 1.45312 0.796875 0.390625 1.3125 0.75 
0.421875 1.3125 0.734375 0.46875 0.921875 0.9375 0.484375 0.875 0.921875 
0.46875 1.01562 0.375 0.484375 1.03125 0.390625 0.515625 1.46875 0.734375 
0.515625 1.4375 0.734375 0.46875 0.890625 0.984375 0.46875 0.84375 0.953125 
0.484375 1.01562 0.109375 0.46875 0.890625 0 0.46875 0.96875 0.03125 
0.46875 0.890625 0.046875 0.46875 0.90625 0.03125 0.421875 0.53125 0.75 
0.46875 0.578125 0.765625 0.53125 0.53125 0.734375 0.484375 0.578125 0.75 
0.53125 0.53125 0.015625 0.53125 0.53125 0.203125 0.421875 0.53125 0 
0.421875 0.53125 0.234375 0.515625 1.40625 0 0.515625 1.98438 0.265625 
0.46875 0.453125 0 0.296875 0.03125 0.296875 0.765625 1.1875 0.71875 
0.34375 0.9375 0.984375 0.65625 1.15625 0.75 0.65625 1.17188 0.765625 
0.59375 1.14062 0.828125 0.578125 1.20312 0.84375 0.421875 0.90625 0.953125 
0.3125 1.09375 0.734375 0.296875 1.125 0.734375 0.515625 0.984375 0.9375 
0.5625 0.984375 0.953125 0.59375 1.17188 0.578125 0.625 1.1875 0.5625 
0.484375 1.32812 0.953125 0.46875 1.32812 0.953125 0.390625 0.953125 0.21875 
0.359375 0.953125 0.21875 0.5625 0.9375 0.25 0.59375 0.953125 0.265625 
0.53125 1.28125 0.625 0.546875 1.28125 0.640625 0.46875 0.953125 0.21875 

METADATA
INFORMATION 2
NAME L2_NORM_RANGE LOCATION vtkDataArray
DATA 2 0.421006 2.06741 
NAME L2_NORM_FINITE_RANGE LOCATION vtkDataArray
DATA 2 0.421006 2.06741 

CELL_TYPES 0

POINT_DATA 72
SCALARS CriticalType int
LOOKUP_TABLE default
3 2 3 3 2 3 2 3 2 
3 2 3 2 3 2 3 2 3 
2 3 2 3 2 3 2 3 2 
3 2 3 2 3 2 3 3 2 
3 2 3 2 3 2 3 2 3 
2 3 2 0 1 0 1 0 1 
0 1 0 0 1 0 1 0 1 
0 1 0 1 0 1 0 1 2 

METADATA
INFORMATION 0

FIELD FieldData 5
NodeId 1 72 int
0 1 2 3 4 5 6 7 8 
9 10 11 12 13 14 15 16 17 
18 19 20 21 22 23 24 25 26 
27 28 29 30 31 32 33 34 35 
36 37 38 39 40 41 42 43 44 
45 46 47 48 49 50 51 52 53 
54 55 56 57 58 59 60 61 62 
63 64 65 66 67 68 69 70 71 

METADATA
INFORMATION 0

Scalar 1 72 float
0.671496 0.597091 0.656507 0.639317 0.563046 0.627942 0.585844 0.605791 0.577708 
0.605088 0.555068 0.59735 0.552597 0.589911 0.547822 0.563729 0.503997 0.546184 
0.522836 0.541803 0.43749 0.5205 0.479568 0.50714 0.469546 0.500948 0.473256 
0.489891 0.458613 0.488215 0.443858 0.472719 0.442889 0.468091 0.456394 0.428552 
0.430253 0.397793 0.272217 0.189599 0.271373 0.189664 0.236625 0.185254 0.232729 
0.18734 0.0732218 0.0498455 0 0.0499024 0.000816773 0.0352306 0.007028 0.0355038 
0.00954405 0.038608 0.0105005 0.0115996 0.0415385 0.0278226 0.0532386 0.0311122 0.0602663 
0.0412612 0.0670003 0.041845 0.0783648 0.0465402 0.0796927 0.203693 0.254638 0.409768 

METADATA
INFORMATION 0

VertexId 1 72 int
398559 374112 365855 439583 406559 316702 324893 389407 389535 
496415 480095 275103 308127 488608 480351 471391 454366 446239 
446431 12832 45215 431969 423776 398617 390427 495326 486943 
200798 209055 391073 390945 519774 503198 61535 3678 20382 
28254 20126 395419 403806 387234 395615 10402 108706 2203 
125083 5793 147425 1886 155795 381745 519958 397994 406250 
438886 447333 503451 389524 389651 495585 503780 307942 299816 
505183 505182 118617 118615 134948 143206 332962 341155 118622 

METADATA
INFORMATION 0

RegionSize 1 72 int
69 37 54 91 85 12 47 3 113 
11 32 26 47 7 375 21 456 5 
274 88 23 5 131 8 266 7 80 
7 353 13 20 17 898 12 11 66 
3 7441 562 209 454 6 76 20769 88 
202 6484 152766 6878 97373 111841 2006 6 24378 
13 33612 54 6 152766 38 27307 7 9294 
0 8300 11 706 22 20769 3 7441 400 

METADATA
INFORMATION 0

RegionSpan 1 72 int
0 0 0 0 0 0 0 0 0 
0 0 0 0 0 0 0 0 0 
0 0 0 0 0 0 0 0 0 
0 0 0 0 0 0 0 0 0 
0 0 0 0 0 0 0 0 0 
0 0 1 0 1 0 0 0 0 
0 0 0 0 1 0 0 0 0 
0 0 0 0 0 0 0 0 0 

METADATA
INFORMATION 0

