# vtk DataFile Version 4.2
vtk output
ASCII
DATASET UNSTRUCTURED_GRID
POINTS 48 float
0.484375 1.15625 0.703125 0.46875 1.125 0.71875 0.484375 1.125 0.734375 
0.484375 1.15625 0.796875 0.453125 1.15625 0.765625 0.46875 1.03125 0.515625 
0.453125 1.03125 0.546875 0.484375 1.01562 0 0.484375 0.875 0.203125 
0.484375 0.90625 0.59375 0.484375 0.90625 0.609375 0.46875 0.921875 0.390625 
0.46875 0.953125 0.421875 0.484375 0.828125 0.96875 0.46875 0.828125 0.953125 
0.484375 0.875 0.53125 0.46875 0.78125 0.5625 0.453125 0.84375 0 
0.484375 0.796875 0.03125 0.484375 0.828125 0.03125 0.53125 0.53125 0.765625 
0.484375 0.578125 0.71875 0.421875 0.53125 0.71875 0.46875 0.578125 0.796875 
0.53125 0.53125 0.015625 0.53125 0.53125 0.28125 0.421875 0.53125 0 
0.421875 0.53125 0.1875 0.46875 0.453125 0 0.609375 0.015625 0.25 
0.6875 1.07812 0.5625 0.390625 1.14062 0.5 0.265625 1.0625 0.59375 
0.421875 1.17188 0.96875 0.484375 1.1875 0.953125 0.40625 0.859375 0.25 
0.390625 0.875 0.234375 0.359375 1.09375 0.875 0.34375 1.0625 0.84375 
0.609375 1.07812 0.640625 0.625 1.03125 0.71875 0.375 1.0625 0.625 
0.3125 1.03125 0.75 0.546875 0.859375 0.234375 0.5625 0.875 0.28125 
0.609375 1.0625 0.828125 0.625 1.04688 0.78125 0.46875 0.875 0.03125 

METADATA
INFORMATION 2
NAME L2_NORM_RANGE LOCATION vtkDataArray
DATA 2 0.651958 1.59788 
NAME L2_NORM_FINITE_RANGE LOCATION vtkDataArray
DATA 2 0.651958 1.59788 

CELL_TYPES 0

POINT_DATA 48
SCALARS CriticalType int
LOOKUP_TABLE default
3 2 3 3 2 3 2 3 2 
3 2 3 2 3 2 3 2 3 
2 3 3 2 3 2 3 2 3 
2 0 1 0 1 0 1 0 0 
1 0 1 0 1 0 1 0 1 
0 1 2 
METADATA
INFORMATION 0

FIELD FieldData 5
NodeId 1 48 int
0 1 2 3 4 5 6 7 8 
9 10 11 12 13 14 15 16 17 
18 19 20 21 22 23 24 25 26 
27 28 29 30 31 32 33 34 35 
36 37 38 39 40 41 42 43 44 
45 46 47 
METADATA
INFORMATION 0

Scalar 1 48 float
0.677644 0.630277 0.670404 0.654303 0.587674 0.548098 0.525873 0.509414 0.392138 
0.505364 0.473888 0.47387 0.447011 0.457468 0.426838 0.452781 0.425574 0.416489 
0.371843 0.398206 0.272853 0.189329 0.272655 0.189788 0.236726 0.187117 0.23362 
0.189173 0 0.0498911 0.000684928 0.0279976 0.00103229 0.0279609 0.00168806 0.00310764 
0.0691204 0.00793828 0.0382988 0.00864131 0.0318563 0.0132784 0.0364519 0.0187154 0.0653777 
0.0198536 0.0417742 0.356554 
METADATA
INFORMATION 0

VertexId 1 48 int
373407 381470 389663 422559 406173 274590 290973 4191 110111 
315039 323231 208606 225118 511327 503134 282143 298142 3485 
19679 19807 403618 379231 379035 420190 10402 149666 2203 
100507 1886 131175 299372 266841 315665 512731 504607 134618 
126489 463255 446742 340327 381096 332056 397460 126435 151076 
438567 413928 19998 
METADATA
INFORMATION 0

RegionSize 1 48 int
18 75 12 62 395 8 540 157 1145 
5 425 6 333 4 17 10 689 16 
16 2 451 7 574 29 79 23021 74 
176 6018 163956 18495 26038 17574 133 11 10 
23021 7 30261 17 28094 38 12737 9 3406 
19 181681 7390 
METADATA
INFORMATION 0

RegionSpan 1 48 int
0 0 0 0 0 0 0 0 0 
0 0 0 0 0 0 0 0 0 
0 0 0 0 0 0 0 0 0 
0 0 0 0 0 0 0 0 0 
0 0 0 0 0 0 0 0 0 
0 1 0 
METADATA
INFORMATION 0

