# vtk DataFile Version 4.2
vtk output
ASCII
DATASET UNSTRUCTURED_GRID
POINTS 93 float
0.46875 1.32812 0.75 0.46875 1.28125 0.71875 0.46875 1.32812 0.703125 
0.453125 1.39062 0.765625 0.453125 1.375 0.765625 0.46875 1.10938 0.8125 
0.46875 1.125 0.8125 0.484375 1.125 0.953125 0.453125 1.14062 0.90625 
0.46875 0.96875 0.765625 0.484375 1.03125 0.734375 0.484375 1.14062 0.5625 
0.484375 1.3125 0.609375 0.4375 1.3125 0.828125 0.453125 1.3125 0.828125 
0.453125 1.29688 0.875 0.453125 1.28125 0.859375 0.46875 1.04688 0.875 
0.46875 1.0625 0.875 0.46875 1.10938 0.484375 0.5 1.14062 0.515625 
0.453125 1.04688 0.0625 0.46875 0.984375 0.109375 0.484375 0.890625 0.59375 
0.484375 0.984375 0.609375 0.5 1.04688 0.625 0.5 1.04688 0.640625 
0.484375 1.07812 0.625 0.484375 1.07812 0.640625 0.484375 0.90625 0.546875 
0.46875 0.875 0.5625 0.5 1.01562 0.375 0.453125 1.03125 0.421875 
0.5 1.17188 0.515625 0.46875 0.9375 0.015625 0.46875 0.953125 0.046875 
0.46875 0.96875 0.328125 0.484375 0.953125 0.1875 0.484375 1 0.125 
0.515625 1.3125 0.875 0.515625 1.3125 0.890625 0.421875 1.10938 0.984375 
0.4375 1.07812 0.984375 0.53125 0.53125 0.734375 0.484375 0.578125 0.75 
0.421875 0.53125 0.734375 0.46875 0.578125 0.734375 0.421875 0.53125 0 
0.421875 0.53125 0.265625 0.53125 0.53125 0 0.53125 0.53125 0.234375 
0.46875 0.453125 0 0.65625 0.078125 0.3125 0.203125 1.15625 0.765625 
0.609375 1.3125 0.984375 0.5 1.29688 0.984375 0.453125 1.29688 0.953125 
0.453125 1.29688 0.96875 0.640625 1.20312 0.859375 0.65625 1.20312 0.890625 
0.609375 1.20312 0.59375 0.609375 1.23438 0.59375 0.3125 1.09375 0.71875 
0.3125 1.09375 0.75 0.40625 1.3125 0.546875 0.40625 1.32812 0.546875 
0.5625 0.9375 0.25 0.59375 0.9375 0.234375 0.609375 1.1875 0.90625 
0.609375 1.17188 0.9375 0.359375 1.10938 0.546875 0.34375 1.10938 0.546875 
0.390625 0.9375 0.234375 0.375 0.953125 0.1875 0.484375 1.3125 0.9375 
0.5 1.3125 0.9375 0.515625 1.125 0.484375 0.546875 1.10938 0.5 
0.53125 1.0625 0.046875 0.546875 1.04688 0 0.4375 1.15625 0.96875 
0.40625 1.10938 0.921875 0.5 1.125 0.453125 0.5 1.10938 0.453125 
0.5 1.14062 0.46875 0.5 1.15625 0.46875 0.546875 1.1875 0.609375 
0.578125 1.1875 0.578125 0.453125 1.14062 0 0.4375 1.15625 0 
0.46875 1.3125 0.796875 0.4375 1.25 0.75 0.484375 0.96875 0.359375 

METADATA
INFORMATION 2
NAME L2_NORM_RANGE LOCATION vtkDataArray
DATA 2 0.651958 1.75014 
NAME L2_NORM_FINITE_RANGE LOCATION vtkDataArray
DATA 2 0.651958 1.75014 

CELL_TYPES 0

POINT_DATA 93
SCALARS CriticalType int
LOOKUP_TABLE default
3 2 3 3 2 3 2 3 2 
3 2 3 2 3 2 3 2 3 
2 3 4 3 2 3 2 3 2 
3 2 3 2 3 2 3 3 2 
3 2 3 3 2 3 2 3 2 
3 2 3 2 3 2 0 1 0 
1 0 0 1 0 1 0 1 0 
1 0 1 0 1 0 1 0 1 
0 1 0 1 0 1 0 1 0 
1 0 1 0 1 0 1 0 1 
0 1 2 
METADATA
INFORMATION 0

FIELD FieldData 5
NodeId 1 93 int
0 1 2 3 4 5 6 7 8 
9 10 11 12 13 14 15 16 17 
18 19 20 21 22 23 24 25 26 
27 28 29 30 31 32 33 34 35 
36 37 38 39 40 41 42 43 44 
45 46 47 48 49 50 51 52 53 
54 55 56 57 58 59 60 61 62 
63 64 65 66 67 68 69 70 71 
72 73 74 75 76 77 78 79 80 
81 82 83 84 85 86 87 88 89 
90 91 92 
METADATA
INFORMATION 0

Scalar 1 93 float
0.694307 0.636804 0.681508 0.667424 0.636711 0.603469 0.580478 0.601874 0.503267 
0.589509 0.525205 0.589493 0.481404 0.579247 0.527615 0.559774 0.52399 0.55163 
0.521614 0.535662 0.470134 0.530778 0.420837 0.512677 0.484052 0.512177 0.484456 
0.508765 0.483732 0.499116 0.462554 0.497298 0.430955 0.49377 0.459225 0.40248 
0.451801 0.409755 0.450502 0.440883 0.415374 0.318408 0.294587 0.272364 0.189693 
0.272166 0.191395 0.234683 0.189828 0.233611 0.189265 0 0.049904 0.00053534 
0.0399854 0.00600324 0.010677 0.0593579 0.0188076 0.0408034 0.0189202 0.0431535 0.0207796 
0.0497575 0.0219426 0.0448618 0.0275646 0.0752342 0.0291665 0.0516407 0.0395022 0.068567 
0.0421419 0.0830631 0.0422628 0.0816701 0.0987622 0.13133 0.11228 0.146741 0.120752 
0.158675 0.133062 0.158305 0.133067 0.159992 0.134574 0.156233 0.187876 0.232481 
0.320065 0.35714 0.401543 
METADATA
INFORMATION 0

VertexId 1 93 int
398686 382110 374110 407133 407069 430558 430622 504351 479837 
405406 389279 299615 324895 439580 439581 464093 455837 463070 
463134 258526 275040 37085 61406 314975 323551 332000 340192 
332127 340319 290463 298526 200800 225437 275168 12062 28510 
176030 102239 69663 464161 472353 520667 520540 387234 395615 
387227 387422 2203 141467 2210 125090 1886 164202 406157 
521511 521440 505053 513245 455529 471914 316263 316391 381332 
397716 292122 292186 134948 126758 480039 496359 291287 291286 
126745 102232 496927 496928 258593 266723 28962 4323 512668 
487898 242208 242144 250464 250528 324387 308005 4701 4764 
423198 398364 192415 
METADATA
INFORMATION 0

RegionSize 1 93 int
16 0 33 2 186 2 354 89 323 
20 26 82 264 17 32 6 45 2 
248 39 171 85 30 12 6 4 7 
1 38 4 795 25 470 1 31 6 
28 38 10 0 391 3 3812 457 51 
546 126 81 11 68 3558 6670 80637 149674 
9469 63 0 12776 16 32421 3 21145 4 
15570 0 108504 17 3252 5 41672 13 4837 
18 12327 0 553 6 2237 14 1268 12 
183 0 50 0 3558 2 285 5 3812 
10 1864 1864 
METADATA
INFORMATION 0

RegionSpan 1 93 int
0 0 0 0 0 0 0 0 0 
0 0 0 0 0 0 0 0 0 
0 0 0 0 0 0 0 0 0 
0 0 0 0 0 0 0 0 0 
0 0 0 0 0 0 0 0 0 
0 0 0 0 0 0 0 1 0 
0 0 0 0 0 0 0 0 0 
1 0 0 0 0 0 0 0 0 
0 0 0 0 0 0 0 0 0 
0 0 0 0 0 0 0 0 0 
0 0 0 
METADATA
INFORMATION 0

