# vtk DataFile Version 4.2
vtk output
ASCII
DATASET UNSTRUCTURED_GRID
POINTS 88 float
0.46875 1.35938 0.796875 0.46875 1.28125 0.75 0.46875 1.39062 0.6875 
0.453125 1.3125 0.703125 0.453125 1.25 0.734375 0.46875 1.14062 0.734375 
0.46875 1.17188 0.765625 0.515625 1.28125 0.84375 0.5 1.28125 0.84375 
0.484375 1.10938 0.859375 0.484375 1.17188 0.84375 0.53125 1.28125 0.59375 
0.5 1.20312 0.578125 0.484375 1.03125 0.5625 0.5 1 0.625 
0.484375 0.953125 0.84375 0.484375 0.90625 0.828125 0.453125 1.09375 0.453125 
0.453125 1.03125 0.421875 0.484375 0.9375 0.625 0.46875 0.921875 0.640625 
0.5 1.125 0.5625 0.484375 0.953125 0.921875 0.484375 0.890625 0.90625 
0.5 1.10938 0.03125 0.484375 1.07812 0.0625 0.453125 1.1875 0.953125 
0.5 1.14062 0.921875 0.46875 1.04688 0.078125 0.46875 1.03125 0.40625 
0.484375 0.921875 0 0.484375 0.984375 0.015625 0.5 1 0.984375 
0.5 1.01562 0.984375 0.484375 0.96875 0.296875 0.46875 0.984375 0.328125 
0.484375 1.03125 0.984375 0.4375 1.14062 0.0625 0.4375 1.125 0.0625 
0.421875 0.53125 0.71875 0.46875 0.578125 0.703125 0.53125 0.53125 0.765625 
0.53125 0.53125 0.3125 0.40625 1.21875 0.578125 0.40625 1.21875 0.5625 
0.390625 1.1875 0.5625 0.40625 1.20312 0.578125 0.53125 0.53125 0.015625 
0.421875 0.53125 0 0.421875 0.53125 0.21875 0.46875 0.453125 0 
0.359375 0.0625 0.296875 0.203125 1.20312 0.78125 0.65625 1.20312 0.765625 
0.609375 1.1875 0.796875 0.390625 1.04688 0.984375 0.328125 1.03125 0.984375 
0.546875 1.3125 0.9375 0.578125 1.3125 0.921875 0.625 1.15625 0.671875 
0.609375 1.21875 0.640625 0.546875 1.01562 0.59375 0.578125 1.01562 0.578125 
0.5625 0.953125 0.234375 0.59375 0.953125 0.234375 0.390625 0.96875 0.203125 
0.359375 0.96875 0.1875 0.546875 1.09375 0.484375 0.546875 1.07812 0.5 
0.421875 1.17188 0.546875 0.390625 1.17188 0.59375 0.515625 1.14062 0.453125 
0.515625 1.14062 0.46875 0.4375 1.20312 0.5625 0.4375 1.1875 0.5625 
0.40625 1.1875 0.609375 0.515625 1.125 0.4375 0.515625 1.10938 0.4375 
0.390625 1.23438 0.734375 0.390625 1.1875 0.734375 0.421875 1.29688 0.84375 
0.421875 1.28125 0.859375 0.5 1.0625 0.578125 0.484375 0.984375 0.1875 
0.484375 0.96875 0.984375 0.484375 0.578125 0.71875 0.40625 1.15625 0.625 
0.484375 1.15625 0.484375 
METADATA
INFORMATION 2
NAME L2_NORM_RANGE LOCATION vtkDataArray
DATA 2 0.47031 1.70492 
NAME L2_NORM_FINITE_RANGE LOCATION vtkDataArray
DATA 2 0.47031 1.70492 

CELL_TYPES 0

POINT_DATA 88
SCALARS CriticalType int
LOOKUP_TABLE default
3 2 3 2 3 3 2 3 2 
3 2 3 2 3 2 3 2 3 
2 3 2 3 3 2 3 2 3 
2 3 3 3 2 3 2 3 2 
3 3 2 3 2 3 2 3 2 
3 2 3 3 2 0 1 0 1 
0 0 1 0 1 0 1 0 1 
0 1 0 1 0 1 0 1 0 
1 0 1 0 0 1 0 1 0 
1 2 2 2 2 1 2 
METADATA
INFORMATION 0

FIELD FieldData 5
NodeId 1 88 int
0 1 2 3 4 5 6 7 8 
9 10 11 12 13 14 15 16 17 
18 19 20 21 22 23 24 25 26 
27 28 29 30 31 32 33 34 35 
36 37 38 39 40 41 42 43 44 
45 46 47 48 49 50 51 52 53 
54 55 56 57 58 59 60 61 62 
63 64 65 66 67 68 69 70 71 
72 73 74 75 76 77 78 79 80 
81 82 83 84 85 86 87 
METADATA
INFORMATION 0

Scalar 1 88 float
0.694209 0.621495 0.679068 0.628398 0.650481 0.623984 0.594963 0.571253 0.547579 
0.569175 0.537244 0.559116 0.481499 0.557564 0.487593 0.55598 0.515281 0.535384 
0.438058 0.530596 0.504481 0.528161 0.525347 0.492395 0.522396 0.44089 0.515378 
0.443763 0.489613 0.480397 0.461666 0.396365 0.438839 0.4152 0.438375 0.415479 
0.437114 0.363202 0.340454 0.27263 0.189139 0.272413 0.189812 0.245415 0.221546 
0.237944 0.21591 0.236854 0.233863 0.184874 0 0.0499042 0.000901273 0.0292163 
0.00430447 0.00538259 0.0299201 0.0156901 0.0424474 0.0166375 0.041967 0.0288707 0.0515815 
0.0344433 0.087807 0.0486438 0.0799249 0.0585668 0.090642 0.106617 0.151408 0.126305 
0.168279 0.128853 0.157025 0.129322 0.142256 0.164418 0.194832 0.252386 0.264831 
0.295358 0.470166 0.407675 0.400893 0.18763 0.152205 0.400842 
METADATA
INFORMATION 0

VertexId 1 88 int
423390 398494 366174 374045 390173 389726 406238 447649 447648 
455135 447199 316578 308064 299167 331808 446303 437919 242077 
225437 331551 339678 299552 487263 478815 20960 37215 504605 
488032 45278 217246 3807 12255 520224 520288 159647 176094 
520351 37468 37404 379035 371038 403618 166050 308122 299930 
299801 308058 10402 2203 116891 1886 155927 414541 406378 
422695 520409 520341 496931 488741 357032 340903 315491 307301 
126820 126822 110489 102295 258467 266595 291547 316121 242273 
250465 299868 299804 324378 234017 233953 390105 389913 447707 
455835 307488 102367 520095 379231 332442 258719 
METADATA
INFORMATION 0

RegionSize 1 88 int
52 126 27 17 8 13 344 4 87 
10 240 49 30 32 321 12 145 45 
38 5 195 16 9 71 60 97 46 
1258 18 21 44 2700 2 4 8 39 
1 0 2896 576 93 451 25 0 373 
8 1803 69 93 2068 6569 77973 79342 3876 
45 25 99110 1 148573 17 6762 13 62469 
13 945 19 3132 6 12710 18 0 0 
2068 0 960 5 0 536 15 2627 2 
2896 621 53 2 307 646 187 
METADATA
INFORMATION 0

RegionSpan 1 88 int
0 0 0 0 0 0 0 0 0 
0 0 0 0 0 0 0 0 0 
0 0 0 0 0 0 0 0 0 
0 0 0 0 0 0 0 0 0 
0 0 0 0 0 0 0 0 0 
0 0 0 0 0 0 1 0 0 
0 0 0 0 1 0 0 0 0 
0 0 0 0 0 0 0 0 0 
0 0 0 0 0 0 0 0 0 
0 0 0 0 0 0 0 
METADATA
INFORMATION 0

