# vtk DataFile Version 4.2
vtk output
ASCII
DATASET UNSTRUCTURED_GRID
POINTS 52 float
0.46875 1.14062 0.703125 0.46875 1.1875 0.6875 0.46875 1.21875 0.640625 
0.484375 1.20312 0.796875 0.46875 1.07812 0.796875 0.484375 1.125 0.890625 
0.453125 1.17188 0.84375 0.46875 1.03125 0.796875 0.515625 1.17188 0.734375 
0.484375 1.28125 0.734375 0.46875 1.04688 0.484375 0.484375 1.09375 0.515625 
0.453125 1.35938 0.734375 0.46875 1.32812 0.734375 0.484375 1.04688 0 
0.484375 0.890625 0.21875 0.46875 0.921875 0.96875 0.46875 0.96875 0.96875 
0.46875 0.828125 0 0.46875 0.90625 0 0.4375 1.17188 0.5625 
0.4375 1.15625 0.5625 0.421875 0.53125 0.75 0.46875 0.578125 0.734375 
0.53125 0.53125 0.75 0.53125 0.53125 0.265625 0.421875 0.53125 0 
0.421875 0.53125 0.234375 0.53125 0.53125 0 0.46875 0.453125 0 
0.484375 0.046875 0.09375 0.71875 1.10938 0.875 0.421875 1.1875 0.5 
0.25 1.125 0.90625 0.578125 1.125 0.5625 0.578125 1.14062 0.53125 
0.578125 1.20312 0.578125 0.609375 1.17188 0.578125 0.640625 1.07812 0.78125 
0.65625 1.07812 0.765625 0.609375 1.10938 0.890625 0.625 1.10938 0.921875 
0.59375 1.20312 0.859375 0.625 1.15625 0.84375 0.5625 1.17188 0.96875 
0.578125 1.17188 0.96875 0.40625 0.890625 0.234375 0.375 0.890625 0.25 
0.5625 0.890625 0.21875 0.578125 0.890625 0.1875 0.484375 0.578125 0.71875 
0.515625 1.17188 0.75 
METADATA
INFORMATION 2
NAME L2_NORM_RANGE LOCATION vtkDataArray
DATA 2 0.495586 1.62665 
NAME L2_NORM_FINITE_RANGE LOCATION vtkDataArray
DATA 2 0.495586 1.62665 

CELL_TYPES 0

POINT_DATA 52
SCALARS CriticalType int
LOOKUP_TABLE default
3 2 3 3 2 3 2 3 3 
2 3 2 3 2 3 2 3 2 
3 2 3 2 3 2 3 2 3 
2 3 0 1 0 1 0 0 1 
0 1 0 1 0 1 0 1 0 
1 0 1 0 1 2 2 
METADATA
INFORMATION 0

FIELD FieldData 5
NodeId 1 52 int
0 1 2 3 4 5 6 7 8 
9 10 11 12 13 14 15 16 17 
18 19 20 21 22 23 24 25 26 
27 28 29 30 31 32 33 34 35 
36 37 38 39 40 41 42 43 44 
45 46 47 48 49 50 51 
METADATA
INFORMATION 0

Scalar 1 52 float
0.667186 0.617957 0.656202 0.656171 0.592365 0.633508 0.559531 0.621077 0.589054 
0.560571 0.576101 0.540758 0.557303 0.522512 0.527448 0.402573 0.475138 0.442037 
0.427985 0.396288 0.402822 0.380544 0.272388 0.189654 0.272377 0.189887 0.234572 
0.187858 0.23326 0 0.0499091 0.000591467 0.0355866 0.00171769 0.0125232 0.0359774 
0.0132557 0.0394009 0.0134371 0.0405632 0.0155623 0.0404133 0.0181039 0.0418293 0.0344458 
0.0618776 0.0359887 0.0668466 0.0510232 0.0741141 0.189804 0.559313 
METADATA
INFORMATION 0

VertexId 1 52 int
373342 365342 340894 422751 422238 471583 447197 422046 389857 
390303 258270 274847 390621 390494 4319 118367 511710 511902 
3422 3742 299740 299676 395419 387422 395426 141474 2203 
125083 2210 1886 49375 463342 267035 479760 299557 283237 
308069 307943 414057 405866 471527 487912 455526 447144 512740 
512741 126554 134744 118372 101989 379231 398049 
METADATA
INFORMATION 0

RegionSize 1 52 int
26 149 29 42 34 52 0 3 17 
1 12 192 6 1238 159 168 11 912 
15 480 0 8860 554 167 456 1 83 
21440 70 6605 147347 48808 2561 44602 3 24918 
6 10175 4 14882 7 1537 9 175887 0 
5962 10 5554 14 21440 14 154 
METADATA
INFORMATION 0

RegionSpan 1 52 int
0 0 0 0 0 0 0 0 0 
0 0 0 0 0 0 0 0 0 
0 0 0 0 0 0 0 0 0 
0 0 0 1 0 0 0 0 0 
0 0 0 0 0 0 0 1 0 
0 0 0 0 0 0 0 
METADATA
INFORMATION 0

