# vtk DataFile Version 4.2
vtk output
ASCII
DATASET UNSTRUCTURED_GRID
POINTS 98 float
0.46875 1.34375 0.796875 0.46875 1.34375 0.78125 0.484375 1.40625 0.765625 
0.5 1.29688 0.703125 0.484375 1.25 0.703125 0.46875 1.23438 0.703125 
0.53125 1.39062 0.671875 0.515625 1.35938 0.6875 0.484375 1.0625 0.734375 
0.484375 1.125 0.71875 0.484375 1.07812 0.859375 0.46875 1.125 0.8125 
0.46875 1.14062 0.65625 0.46875 1.17188 0.671875 0.4375 1.5 0.765625 
0.453125 1.5 0.765625 0.5 1.17188 0.984375 0.53125 1.26562 0.921875 
0.46875 0.953125 0.796875 0.46875 0.96875 0.78125 0.5 1.23438 0.53125 
0.484375 1.29688 0.625 0.5 1.17188 0 0.484375 1.125 0.046875 
0.46875 0.96875 0.609375 0.46875 1.07812 0.640625 0.53125 1.3125 0.921875 
0.484375 1.32812 0.90625 0.46875 1.07812 0.078125 0.484375 0.90625 0.90625 
0.46875 0.875 0.875 0.453125 1 0.578125 0.46875 0.984375 0.578125 
0.453125 1.28125 0.53125 0.453125 1.26562 0.53125 0.484375 0.96875 0.5 
0.484375 0.90625 0.515625 0.46875 0.953125 0 0.46875 1.0625 0 
0.453125 1.04688 0.390625 0.46875 1.0625 0.40625 0.484375 1.01562 0.359375 
0.46875 1.03125 0.375 0.484375 1.01562 0.125 0.484375 1.04688 0.125 
0.46875 0.953125 0.4375 0.453125 1 0.421875 0.46875 1.07812 0.5625 
0.46875 1.0625 0.5625 0.46875 0.90625 0.125 0.484375 0.859375 0.09375 
0.53125 0.53125 0.71875 0.484375 0.578125 0.78125 0.421875 0.53125 0.734375 
0.46875 0.578125 0.734375 0.53125 0.53125 0 0.53125 0.53125 0.25 
0.421875 0.53125 0 0.421875 0.53125 0.28125 0.46875 0.453125 0 
0.265625 0.015625 0.4375 0.21875 1.20312 0.71875 0.34375 1.03125 0.484375 
0.40625 0.984375 0.53125 0.3125 1.125 0.71875 0.296875 1.15625 0.703125 
0.546875 1.03125 0.9375 0.59375 1.03125 0.96875 0.53125 0.921875 0.515625 
0.609375 0.9375 0.484375 0.390625 1.23438 0.5625 0.359375 1.20312 0.5625 
0.484375 1.3125 0.484375 0.546875 1.29688 0.46875 0.484375 1.42188 0.90625 
0.34375 1.4375 0.875 0.578125 1.17188 0.84375 0.578125 1.1875 0.859375 
0.4375 1.29688 0.5 0.4375 1.29688 0.484375 0.578125 0.96875 0.234375 
0.609375 0.96875 0.234375 0.40625 1.26562 0.53125 0.40625 1.26562 0.515625 
0.390625 0.96875 0.21875 0.359375 0.96875 0.28125 0.53125 1.3125 0.859375 
0.546875 1.29688 0.84375 0.4375 1.1875 0.984375 0.40625 1.17188 0.921875 
0.4375 1.17188 0 0.4375 1.21875 0 0.453125 1.4375 0.796875 
0.4375 1.4375 0.796875 0.46875 1.45312 0.8125 0.453125 1.45312 0.8125 
0.5 1.375 0.71875 0.484375 0.984375 0.28125 
METADATA
INFORMATION 2
NAME L2_NORM_RANGE LOCATION vtkDataArray
DATA 2 0.512062 1.75432 
NAME L2_NORM_FINITE_RANGE LOCATION vtkDataArray
DATA 2 0.512062 1.75432 

CELL_TYPES 0

POINT_DATA 98
SCALARS CriticalType int
LOOKUP_TABLE default
3 2 3 3 2 3 3 2 3 
2 3 2 3 2 3 2 3 2 
3 2 3 2 3 2 3 2 3 
2 3 3 2 3 2 3 2 3 
2 3 2 3 2 3 2 3 2 
3 2 3 2 3 2 3 2 3 
2 3 2 3 2 0 1 0 1 
0 0 1 0 1 0 1 0 1 
0 1 0 1 0 1 0 1 0 
1 0 1 0 1 0 1 0 1 
0 1 0 1 0 1 2 2 
METADATA
INFORMATION 0

FIELD FieldData 5
NodeId 1 98 int
0 1 2 3 4 5 6 7 8 
9 10 11 12 13 14 15 16 17 
18 19 20 21 22 23 24 25 26 
27 28 29 30 31 32 33 34 35 
36 37 38 39 40 41 42 43 44 
45 46 47 48 49 50 51 52 53 
54 55 56 57 58 59 60 61 62 
63 64 65 66 67 68 69 70 71 
72 73 74 75 76 77 78 79 80 
81 82 83 84 85 86 87 88 89 
90 91 92 93 94 95 96 97 
METADATA
INFORMATION 0

Scalar 1 98 float
0.694639 0.66243 0.689794 0.646443 0.619686 0.644848 0.639507 0.604864 0.618728 
0.55806 0.595743 0.539238 0.591535 0.559839 0.589052 0.565661 0.568391 0.477714 
0.567335 0.535506 0.561742 0.484577 0.547281 0.456952 0.541421 0.504152 0.536359 
0.491828 0.524996 0.512194 0.482087 0.501017 0.437018 0.475399 0.452192 0.475058 
0.436877 0.471914 0.403522 0.468575 0.444332 0.467849 0.423268 0.46057 0.437269 
0.459737 0.405683 0.435048 0.40525 0.393706 0.371787 0.272532 0.190294 0.272401 
0.19037 0.232168 0.188945 0.232112 0.186109 0 0.0498995 0.000890277 0.0305828 
0.00440377 0.00659465 0.0411079 0.00759688 0.044753 0.0121118 0.0367674 0.0274027 0.0628979 
0.0288883 0.0533433 0.0323765 0.0697269 0.0334782 0.0765509 0.0374209 0.0635151 0.0397073 
0.0704624 0.0514843 0.0795449 0.0604119 0.0842343 0.107637 0.154388 0.120563 0.153514 
0.133558 0.193597 0.330153 0.352954 0.341704 0.367159 0.590614 0.401841 
METADATA
INFORMATION 0

VertexId 1 98 int
423326 415134 407199 373984 373791 373726 357986 366049 389407 
381471 455007 430622 348766 357086 407580 407581 520928 488546 
421726 413598 283616 333023 4832 29215 323486 340318 488738 
480607 45406 478879 462366 307229 307166 283805 283741 266143 
274079 3934 4382 209117 217374 192607 200862 69727 69855 
233310 225309 299358 299294 69278 52703 379042 411999 387227 
387422 2210 133282 2203 149659 1886 229457 381774 258198 
282586 381460 373395 495779 512166 274146 257831 299993 299863 
259359 251107 480991 464662 447205 455461 267484 259292 126885 
126887 283738 275546 118681 151447 455970 447715 520988 488154 
4828 5020 423709 423708 431966 431965 382496 151519 
METADATA
INFORMATION 0

RegionSize 1 98 int
14 120 7 7 9 2 11 30 11 
179 28 36 7 13 0 30 66 657 
12 432 95 41 18 31 35 199 18 
114 20 25 95 6 3 0 211 18 
425 37 10 4 205 9 633 7 114 
16 16 4 128 9 236 462 127 551 
3 69 338 96 4104 6801 91744 91141 41700 
61 7 47248 24 114597 79 44400 2 868 
5 31353 29 632 21 1695 0 6910 5 
4192 0 2014 7 15049 8 4104 8 111 
7 10832 4 688 1 236 130 1334 
METADATA
INFORMATION 0

RegionSpan 1 98 int
0 0 0 0 0 0 0 0 0 
0 0 0 0 0 0 0 0 0 
0 0 0 0 0 0 0 0 0 
0 0 0 0 0 0 0 0 0 
0 0 0 0 0 0 0 0 0 
0 0 0 0 0 0 0 0 0 
0 0 0 0 0 0 1 0 0 
0 0 0 0 1 0 0 0 0 
0 0 0 0 0 0 0 0 0 
0 0 0 0 0 0 0 0 0 
0 0 0 0 0 0 0 0 
METADATA
INFORMATION 0

