# vtk DataFile Version 4.2
vtk output
ASCII
DATASET UNSTRUCTURED_GRID
POINTS 58 float
0.484375 1.29688 0.71875 0.484375 1.1875 0.703125 0.453125 1.21875 0.890625 
0.46875 1.14062 0.828125 0.46875 1.125 0.8125 0.5 1.1875 0.640625 
0.5 1.15625 0.6875 0.5 1.20312 0.6875 0.484375 1.125 0.5625 
0.46875 1.17188 0.609375 0.5 1.125 0.953125 0.484375 1.15625 0.921875 
0.484375 1.04688 0.671875 0.484375 1.09375 0.671875 0.46875 1 0.640625 
0.46875 1.03125 0.65625 0.484375 1.0625 0.015625 0.46875 0.90625 0.03125 
0.484375 0.90625 0.90625 0.46875 0.859375 0.890625 0.46875 0.9375 0.953125 
0.46875 0.890625 0.953125 0.484375 0.953125 0.375 0.484375 0.96875 0.390625 
0.46875 0.921875 0 0.53125 0.53125 0.71875 0.484375 0.578125 0.78125 
0.421875 0.53125 0.734375 0.46875 0.578125 0.734375 0.53125 0.53125 0 
0.53125 0.53125 0.25 0.421875 0.53125 0.03125 0.421875 0.53125 0.203125 
0.46875 0.453125 0 0.546875 0 0.15625 0.703125 1.125 0.9375 
0.53125 1.20312 0.015625 0.234375 1.125 0.59375 0.640625 1.0625 0.765625 
0.640625 1.09375 0.765625 0.359375 1.14062 0.84375 0.328125 1.1875 0.828125 
0.453125 1.28125 0.5625 0.546875 1.25 0.546875 0.328125 1.03125 0.734375 
0.3125 1.07812 0.703125 0.3125 1.125 0.578125 0.296875 1.10938 0.5625 
0.59375 1.09375 0.578125 0.609375 1.10938 0.59375 0.5625 0.90625 0.234375 
0.578125 0.90625 0.234375 0.5 1.20312 0.578125 0.484375 1.23438 0.5625 
0.453125 1.15625 0.546875 0.4375 1.15625 0.5625 0.46875 1.15625 0.78125 
0.484375 0.90625 0.203125 
METADATA
INFORMATION 2
NAME L2_NORM_RANGE LOCATION vtkDataArray
DATA 2 0.568759 1.62447 
NAME L2_NORM_FINITE_RANGE LOCATION vtkDataArray
DATA 2 0.568759 1.62447 

CELL_TYPES 0

POINT_DATA 58
SCALARS CriticalType int
LOOKUP_TABLE default
3 2 3 2 3 3 2 3 3 
2 3 2 3 2 3 2 3 2 
3 2 3 2 3 2 3 3 2 
3 2 3 2 3 2 0 1 0 
1 0 0 1 0 1 0 1 0 
1 0 1 0 1 0 1 0 1 
0 1 2 2 
METADATA
INFORMATION 0

FIELD FieldData 5
NodeId 1 58 int
0 1 2 3 4 5 6 7 8 
9 10 11 12 13 14 15 16 17 
18 19 20 21 22 23 24 25 26 
27 28 29 30 31 32 33 34 35 
36 37 38 39 40 41 42 43 44 
45 46 47 48 49 50 51 52 53 
54 55 56 57 
METADATA
INFORMATION 0

Scalar 1 58 float
0.663475 0.58078 0.661042 0.607532 0.643133 0.623429 0.579462 0.617226 0.602226 
0.56144 0.589831 0.539836 0.583534 0.548919 0.560434 0.533835 0.524653 0.421174 
0.504751 0.465065 0.47696 0.449203 0.465225 0.4362 0.459748 0.272418 0.189533 
0.272281 0.189802 0.232354 0.189493 0.23199 0.189192 0 0.0499098 0.000596541 
0.023317 0.000706702 0.00438586 0.031186 0.00937909 0.032366 0.0101471 0.0576736 0.0110138 
0.0427428 0.0119979 0.0338533 0.0173618 0.0494132 0.0242193 0.0640658 0.162503 0.18625 
0.334481 0.376468 0.577979 0.398127 
METADATA
INFORMATION 0

VertexId 1 58 int
382175 373535 471965 438878 430622 340768 365216 365408 299551 
324318 504352 488095 356575 356767 339998 348318 12575 20126 
478879 470494 503582 503390 200543 208799 3806 379042 411999 
387227 387422 2210 133282 18587 108699 1886 81955 496173 
13154 315919 405801 405929 447063 439061 300189 291875 389269 
373076 307732 299475 307622 315879 126628 126629 308064 299999 
291485 299676 414366 110239 
METADATA
INFORMATION 0

RegionSize 1 58 int
134 9 20 42 4 17 8 3 26 
100 30 80 8 82 4 944 114 87 
11 261 9 251 5 932 10 467 4 
558 22 66 24 75 321 6621 135090 13156 
46409 12144 6 6540 12 8617 39 11726 7 
127888 1 76886 8 33547 3 30581 2 321 
5 748 102 748 
METADATA
INFORMATION 0

RegionSpan 1 58 int
0 0 0 0 0 0 0 0 0 
0 0 0 0 0 0 0 0 0 
0 0 0 0 0 0 0 0 0 
0 0 0 0 0 0 0 1 0 
0 0 0 0 0 0 0 0 0 
0 0 0 0 1 0 0 0 0 
0 0 0 0 
METADATA
INFORMATION 0

