# vtk DataFile Version 4.2
vtk output
ASCII
DATASET UNSTRUCTURED_GRID
POINTS 84 float
0.5 1.35938 0.734375 0.484375 1.15625 0.765625 0.484375 1.23438 0.640625 
0.46875 1.26562 0.640625 0.46875 1.28125 0.875 0.484375 1.26562 0.84375 
0.484375 1.20312 0.8125 0.46875 1.34375 0.640625 0.484375 1.09375 0.765625 
0.5 1.5 0.671875 0.5 1.45312 0.703125 0.4375 1.34375 0.734375 
0.46875 1.34375 0.71875 0.453125 1.17188 0.53125 0.5 1.125 0.5625 
0.484375 0.90625 0.8125 0.484375 0.875 0.796875 0.46875 1.07812 0.046875 
0.484375 1.04688 0.09375 0.46875 0.90625 0.625 0.484375 0.90625 0.640625 
0.46875 0.90625 0.859375 0.46875 0.921875 0.84375 0.5 1.15625 0 
0.5 1.125 0.03125 0.484375 1.0625 0.421875 0.484375 1.09375 0.453125 
0.484375 1.17188 0.984375 0.484375 1.21875 0.953125 0.390625 1.34375 0.78125 
0.421875 1.32812 0.78125 0.46875 0.953125 0.53125 0.453125 1.01562 0.53125 
0.515625 1.48438 0.765625 0.515625 1.46875 0.765625 0.484375 0.96875 0.984375 
0.484375 0.953125 0.9375 0.484375 1.03125 0.109375 0.515625 1.10938 0.03125 
0.46875 1.04688 0.9375 0.453125 1.07812 0.9375 0.484375 0.90625 0.484375 
0.46875 0.84375 0.5 0.421875 0.53125 0.734375 0.421875 0.53125 0.21875 
0.53125 0.53125 0.75 0.484375 0.578125 0.75 0.421875 0.53125 0 
0.53125 0.53125 0 0.53125 0.53125 0.234375 0.46875 1.35938 0 
0.53125 1.9375 0.25 0.46875 0.453125 0 0.53125 0.078125 0.421875 
0.734375 1.21875 0.65625 0.296875 1.21875 0.640625 0.3125 1.20312 0.640625 
0.375 1.29688 0.90625 0.359375 1.3125 0.921875 0.3125 1.125 0.765625 
0.328125 1.17188 0.8125 0.46875 1.32812 0.984375 0.515625 1.3125 0.984375 
0.5625 0.953125 0.25 0.59375 0.953125 0.25 0.390625 0.96875 0.203125 
0.359375 0.96875 0.21875 0.53125 1.14062 0.515625 0.546875 1.125 0.515625 
0.546875 1.125 0.546875 0.5625 1.09375 0.5625 0.515625 1.15625 0.5 
0.515625 1.14062 0.5 0.4375 1.25 0.609375 0.421875 1.23438 0.625 
0.4375 1.15625 0 0.4375 1.1875 0 0.53125 1.29688 0.875 
0.515625 1.32812 0.890625 0.5 1.29688 0.765625 0.46875 1.40625 0.6875 
0.5 1.09375 0.03125 0.46875 0.578125 0.734375 0.46875 0.96875 0.21875 

METADATA
INFORMATION 2
NAME L2_NORM_RANGE LOCATION vtkDataArray
DATA 2 0.651958 2.02451 
NAME L2_NORM_FINITE_RANGE LOCATION vtkDataArray
DATA 2 0.651958 2.02451 

CELL_TYPES 0

POINT_DATA 84
SCALARS CriticalType int
LOOKUP_TABLE default
3 2 3 2 3 2 3 3 3 
3 2 3 2 3 2 3 2 3 
2 3 2 3 2 3 2 3 2 
3 2 3 2 3 2 3 2 3 
2 3 3 3 2 3 2 3 2 
3 2 3 3 2 3 2 0 1 
0 1 0 0 1 0 1 0 1 
0 1 0 1 0 1 0 1 0 
1 0 1 0 1 0 1 2 2 
2 2 2 
METADATA
INFORMATION 0

FIELD FieldData 5
NodeId 1 84 int
0 1 2 3 4 5 6 7 8 
9 10 11 12 13 14 15 16 17 
18 19 20 21 22 23 24 25 26 
27 28 29 30 31 32 33 34 35 
36 37 38 39 40 41 42 43 44 
45 46 47 48 49 50 51 52 53 
54 55 56 57 58 59 60 61 62 
63 64 65 66 67 68 69 70 71 
72 73 74 75 76 77 78 79 80 
81 82 83 
METADATA
INFORMATION 0

Scalar 1 84 float
0.687321 0.590734 0.656669 0.593277 0.649454 0.592246 0.641038 0.637222 0.626241 
0.605013 0.580134 0.602663 0.573468 0.555839 0.485975 0.554514 0.508462 0.54003 
0.436822 0.533703 0.500422 0.525091 0.493895 0.524219 0.449899 0.519853 0.471635 
0.512781 0.458672 0.500208 0.462589 0.497766 0.460535 0.497739 0.458143 0.486873 
0.449145 0.47874 0.472118 0.472011 0.441855 0.462919 0.432783 0.272526 0.189738 
0.272257 0.189942 0.240321 0.233089 0.189093 0.0816323 0.0499164 0 0.0499052 
0.000707115 0.0267094 0.00301657 0.00666784 0.0419648 0.0127478 0.040883 0.0289792 0.0508724 
0.0406672 0.0773021 0.0493564 0.0923709 0.0663071 0.110554 0.0744198 0.109264 0.0907276 
0.112775 0.170163 0.193534 0.182495 0.253555 0.209683 0.232098 0.542456 0.533008 
0.424601 0.189417 0.407786 
METADATA
INFORMATION 0

VertexId 1 84 int
390624 406175 340959 341086 464030 447583 430943 341406 405919 
358432 374624 390556 382366 283357 299552 429727 421407 29022 
53471 331422 339615 454302 446174 4768 21024 225567 242079 
520927 504735 415129 415067 282462 282717 407521 407457 520095 
495455 61599 20961 495838 495965 257695 265630 387227 116891 
395426 395615 2203 2210 125090 5598 139042 1886 221538 
349103 340883 340820 480472 488727 406036 430805 521566 521505 
135012 135014 110489 118679 275042 274979 291363 299428 266913 
266849 324636 332763 4764 4892 464098 472417 406752 366238 
20896 387422 118686 
METADATA
INFORMATION 0

RegionSize 1 84 int
74 23 17 131 32 123 18 14 9 
5 22 6 98 38 308 13 132 34 
34 13 134 11 162 21 20 27 197 
21 14 8 46 27 47 5 233 29 
176 20 1 1 246 8 802 557 6 
458 27 76 72 11050 5672 1630 7232 1630 
65448 100753 13 4 151572 14 14400 6 71526 
17 6080 18 4799 5 453 5 315 0 
11050 6 2616 12 8506 11 1500 66 292 
77 40 8506 
METADATA
INFORMATION 0

RegionSpan 1 84 int
0 0 0 0 0 0 0 0 0 
0 0 0 0 0 0 0 0 0 
0 0 0 0 0 0 0 0 0 
0 0 0 0 0 0 0 0 0 
0 0 0 0 0 0 0 0 0 
0 0 0 0 0 0 1 0 1 
0 0 0 0 1 0 0 0 0 
0 0 0 0 0 0 0 0 0 
0 0 0 0 0 0 0 0 0 
0 0 0 
METADATA
INFORMATION 0

