# vtk DataFile Version 4.2
vtk output
ASCII
DATASET UNSTRUCTURED_GRID
POINTS 48 float
0.484375 1.20312 0.765625 0.484375 1.17188 0.75 0.46875 1.20312 0.6875 
0.46875 1.10938 0.640625 0.46875 1.15625 0.625 0.484375 1.15625 0.828125 
0.46875 1.1875 0.84375 0.46875 1.21875 0.828125 0.5 1.21875 0.734375 
0.46875 1.125 0.578125 0.46875 1.21875 0.59375 0.46875 1.35938 0.734375 
0.484375 1.32812 0.734375 0.46875 0.9375 0.796875 0.484375 0.953125 0.78125 
0.484375 1.04688 0 0.484375 0.890625 0.21875 0.421875 0.53125 0.75 
0.46875 0.578125 0.734375 0.53125 0.53125 0.75 0.484375 0.578125 0.75 
0.53125 0.53125 0.015625 0.53125 0.53125 0.203125 0.421875 0.53125 0 
0.421875 0.53125 0.265625 0.46875 0.453125 0 0.34375 0.09375 0.0625 
0.703125 1.125 0.921875 0.5 1.1875 0 0.234375 1.07812 0.734375 
0.609375 1.17188 0.828125 0.640625 1.10938 0.8125 0.359375 1.10938 0.640625 
0.328125 1.125 0.640625 0.59375 1.17188 0.609375 0.640625 1.14062 0.65625 
0.328125 1.04688 0.734375 0.3125 1.0625 0.734375 0.5 1.17188 0.984375 
0.53125 1.17188 0.984375 0.578125 1.15625 0.84375 0.578125 1.17188 0.84375 
0.5625 0.890625 0.265625 0.578125 0.890625 0.265625 0.40625 0.890625 0.234375 
0.375 0.890625 0.234375 0.453125 1.25 0.796875 0.5 1.1875 0.71875 

METADATA
INFORMATION 2
NAME L2_NORM_RANGE LOCATION vtkDataArray
DATA 2 0.361745 1.62003 
NAME L2_NORM_FINITE_RANGE LOCATION vtkDataArray
DATA 2 0.361745 1.62003 

CELL_TYPES 0

POINT_DATA 48
SCALARS CriticalType int
LOOKUP_TABLE default
3 2 3 2 3 3 2 3 3 
3 2 3 2 3 2 3 2 3 
2 3 2 3 2 3 2 0 1 
0 1 0 0 1 0 1 0 1 
0 1 0 1 0 1 0 1 0 
1 2 2 
METADATA
INFORMATION 0

FIELD FieldData 5
NodeId 1 48 int
0 1 2 3 4 5 6 7 8 
9 10 11 12 13 14 15 16 17 
18 19 20 21 22 23 24 25 26 
27 28 29 30 31 32 33 34 35 
36 37 38 39 40 41 42 43 44 
45 46 47 
METADATA
INFORMATION 0

Scalar 1 48 float
0.672173 0.616925 0.645914 0.607979 0.645617 0.642969 0.610304 0.642657 0.639813 
0.624204 0.589741 0.556791 0.512897 0.553259 0.523567 0.541304 0.402677 0.273958 
0.188746 0.271608 0.189919 0.23634 0.184903 0.233174 0.188333 0 0.049907 
0.00128814 0.0312085 0.00150017 0.00691722 0.0318273 0.00915205 0.0327706 0.011132 0.0364362 
0.0178746 0.0436106 0.0299182 0.060108 0.0358998 0.0574263 0.0442976 0.0739154 0.0444099 
0.0742586 0.576193 0.581583 
METADATA
INFORMATION 0

VertexId 1 48 int
406367 398047 365406 340446 332446 438943 447262 439198 390048 
307742 316318 390622 390495 421662 413535 4319 118367 395419 
387422 395426 395615 10402 108706 2203 141467 1886 33174 
487981 4896 389455 439015 430569 340439 340501 324326 348777 
389333 389396 520928 520930 447141 447205 142948 142949 126554 
126552 422941 381728 
METADATA
INFORMATION 0

RegionSize 1 48 int
25 38 28 27 11 11 70 5 5 
17 33 6 2103 6 130 175 9345 575 
23 450 94 77 21376 89 276 6827 139433 
35383 3430 32281 12 5378 14 22613 18 70642 
11 151856 1 14398 0 6290 12 196 9 
21376 428 13 
METADATA
INFORMATION 0

RegionSpan 1 48 int
0 0 0 0 0 0 0 0 0 
0 0 0 0 0 0 0 0 0 
0 0 0 0 0 0 0 0 1 
0 0 0 0 0 0 0 0 0 
0 1 0 0 0 0 0 0 0 
0 0 0 
METADATA
INFORMATION 0

