# vtk DataFile Version 4.2
vtk output
ASCII
DATASET UNSTRUCTURED_GRID
POINTS 88 float
0.484375 1.39062 0.796875 0.484375 1.35938 0.8125 0.46875 1.35938 0.75 
0.484375 1.35938 0.703125 0.484375 1.42188 0.6875 0.453125 1.29688 0.84375 
0.484375 1.14062 0.703125 0.484375 1.26562 0.6875 0.5 1.32812 0.625 
0.484375 1.29688 0.625 0.453125 1.25 0.625 0.46875 1.10938 0.578125 
0.4375 1.17188 0.578125 0.484375 1.10938 0.453125 0.515625 1.125 0.484375 
0.484375 1.03125 0.8125 0.46875 1.0625 0.8125 0.484375 0.90625 0.8125 
0.484375 0.96875 0.8125 0.484375 0.90625 0.640625 0.484375 0.9375 0.671875 
0.484375 1.17188 0.953125 0.46875 1.17188 0.953125 0.46875 1.07812 0.046875 
0.46875 1.03125 0.0625 0.484375 0.96875 0.96875 0.46875 0.859375 0.953125 
0.484375 0.90625 0.921875 0.484375 0.921875 0.90625 0.46875 1.01562 0.375 
0.484375 1.04688 0.40625 0.484375 0.96875 0.578125 0.484375 1.03125 0.578125 
0.484375 0.859375 0.609375 0.46875 0.84375 0.625 0.484375 0.890625 0.5 
0.484375 0.90625 0.515625 0.46875 0.96875 0.09375 0.46875 0.921875 0.453125 
0.46875 0.953125 0.453125 0.484375 0.96875 0.453125 0.484375 0.953125 0.21875 
0.484375 0.96875 0.203125 0.46875 0.875 0 0.46875 0.90625 0 
0.46875 0.953125 0.1875 0.453125 0.9375 0 0.46875 0.96875 0.015625 
0.421875 1.10938 0.984375 0.4375 1.07812 0.984375 0.53125 0.53125 0.734375 
0.53125 0.53125 0.234375 0.421875 0.53125 0.75 0.46875 0.578125 0.796875 
0.53125 0.53125 0.015625 0.421875 0.53125 0 0.421875 0.53125 0.234375 
0.484375 1.40625 0 0.53125 1.9375 0.3125 0.46875 0.453125 0 
0.53125 0.125 0.40625 0.28125 1.21875 0.921875 0.53125 1.32812 0.984375 
0.3125 1.125 0.71875 0.328125 1.15625 0.671875 0.5 1.32812 0.96875 
0.46875 1.32812 0.53125 0.453125 1.32812 0.53125 0.5625 0.9375 0.234375 
0.59375 0.9375 0.28125 0.390625 0.9375 0.25 0.359375 0.953125 0.234375 
0.578125 1.1875 0.8125 0.59375 1.20312 0.828125 0.421875 1.09375 0.453125 
0.40625 1.09375 0.46875 0.4375 1.17188 0.953125 0.421875 1.17188 0.9375 
0.453125 1.1875 0.96875 0.453125 1.17188 0.96875 0.453125 1.29688 0.796875 
0.4375 1.29688 0.78125 0.46875 1.35938 0.765625 0.5 1.34375 0.65625 
0.5 0.984375 0.453125 0.46875 0.96875 0.15625 0.484375 0.578125 0.78125 
0.46875 0.96875 0.25 
METADATA
INFORMATION 2
NAME L2_NORM_RANGE LOCATION vtkDataArray
DATA 2 0.651958 2.03317 
NAME L2_NORM_FINITE_RANGE LOCATION vtkDataArray
DATA 2 0.651958 2.03317 

CELL_TYPES 0

POINT_DATA 88
SCALARS CriticalType int
LOOKUP_TABLE default
3 2 3 2 3 3 3 2 3 
2 3 3 2 3 2 3 2 3 
2 3 2 3 2 3 2 3 2 
3 2 3 2 3 2 3 2 3 
2 3 3 2 3 3 2 3 2 
3 3 2 3 2 3 2 3 2 
3 3 2 3 2 0 1 0 1 
0 1 0 0 1 0 1 0 1 
0 1 0 1 0 1 0 1 0 
1 2 2 2 2 2 2 
METADATA
INFORMATION 0

FIELD FieldData 5
NodeId 1 88 int
0 1 2 3 4 5 6 7 8 
9 10 11 12 13 14 15 16 17 
18 19 20 21 22 23 24 25 26 
27 28 29 30 31 32 33 34 35 
36 37 38 39 40 41 42 43 44 
45 46 47 48 49 50 51 52 53 
54 55 56 57 58 59 60 61 62 
63 64 65 66 67 68 69 70 71 
72 73 74 75 76 77 78 79 80 
81 82 83 84 85 86 87 
METADATA
INFORMATION 0

Scalar 1 88 float
0.673004 0.624714 0.666609 0.639043 0.664492 0.654587 0.648298 0.587718 0.638613 
0.602066 0.63161 0.566145 0.526114 0.546653 0.436829 0.545941 0.508806 0.541832 
0.506018 0.53661 0.501556 0.515863 0.49408 0.510487 0.421679 0.508778 0.452686 
0.505455 0.477503 0.504042 0.410998 0.499044 0.471625 0.498411 0.471232 0.476931 
0.43703 0.458204 0.450665 0.412671 0.449638 0.439818 0.40586 0.437888 0.406714 
0.435635 0.431256 0.409609 0.294684 0.261558 0.27251 0.189594 0.271918 0.189599 
0.23647 0.233148 0.187529 0.0824642 0.0498806 0 0.0499152 0.000590489 0.0365796 
0.00576053 0.0378318 0.0149986 0.0161004 0.0603151 0.0293566 0.0797668 0.0377376 0.0733542 
0.103317 0.175348 0.128303 0.15221 0.154277 0.17593 0.196291 0.223906 0.365287 
0.394674 0.621252 0.570382 0.411259 0.404671 0.18957 0.404615 
METADATA
INFORMATION 0

VertexId 1 88 int
423519 431583 398814 374239 366303 447709 373343 365663 333152 
333023 332829 307678 307932 242143 258593 430239 430366 429727 
429983 339615 356127 504543 504542 29022 37022 511903 503262 
487071 478943 200798 217311 307103 307359 323039 331166 265823 
274079 53150 241374 241502 241567 118623 110495 3614 3742 
102238 3869 12190 520667 520540 387234 125090 395419 420190 
10402 2203 125083 5791 171810 1886 213538 488338 521570 
381460 357013 513376 283998 283997 126756 151334 134937 126807 
430885 439142 242075 250266 504540 496347 512797 512733 423133 
414940 407006 349600 241632 85918 411999 135070 
METADATA
INFORMATION 0

RegionSize 1 88 int
31 7 17 33 5 12 16 99 5 
39 15 19 215 64 708 6 42 7 
60 21 121 2 300 61 32 11 373 
15 125 57 226 9 4 11 443 5 
11 23 6 0 3 9 1 6 10 
9 7 10 7 2512 452 0 575 3 
66 86 1349 5507 195835 7363 121555 123933 10167 
11 195835 1 0 14167 16 16377 14 3584 
12 51 2 3069 3 1349 0 2512 8 
377 119 390 2 0 168 377 
METADATA
INFORMATION 0

RegionSpan 1 88 int
0 0 0 0 0 0 0 0 0 
0 0 0 0 0 0 0 0 0 
0 0 0 0 0 0 0 0 0 
0 0 0 0 0 0 0 0 0 
0 0 0 0 0 0 0 0 0 
0 0 0 0 0 0 0 0 0 
0 0 0 0 0 0 1 0 0 
0 0 0 0 0 0 0 0 0 
0 0 0 0 0 0 0 0 0 
0 0 0 0 0 0 0 
METADATA
INFORMATION 0

