# vtk DataFile Version 4.2
vtk output
ASCII
DATASET UNSTRUCTURED_GRID
POINTS 52 float
0.484375 1.125 0.71875 0.484375 1.10938 0.75 0.46875 1.09375 0.90625 
0.484375 1.10938 0.875 0.5 1.125 0.765625 0.46875 1.14062 0.65625 
0.46875 1.01562 0.640625 0.46875 1.09375 0.609375 0.484375 1.10938 0.859375 
0.453125 1.14062 0.8125 0.46875 1.125 0.796875 0.46875 1.03125 0.515625 
0.5 1.09375 0.5625 0.484375 1 0.015625 0.46875 0.984375 0.046875 
0.46875 0.96875 0.046875 0.484375 0.921875 0.09375 0.484375 0.953125 0.09375 
0.421875 0.53125 0.734375 0.46875 0.578125 0.734375 0.53125 0.53125 0.71875 
0.53125 0.53125 0.21875 0.421875 0.53125 0 0.421875 0.53125 0.28125 
0.34375 1.14062 0.703125 0.359375 1.09375 0.703125 0.53125 0.53125 0 
0.484375 1.21875 0 0.546875 1.98438 0.3125 0.46875 0.453125 0 
0.25 0.046875 0.078125 0.25 1.0625 0.609375 0.4375 1.14062 0.984375 
0.71875 1.04688 0.71875 0.546875 1.15625 0.984375 0.46875 1.15625 0.984375 
0.328125 1.01562 0.75 0.3125 1.01562 0.765625 0.453125 1.17188 0.53125 
0.5 1.17188 0.515625 0.40625 0.859375 0.25 0.390625 0.875 0.28125 
0.359375 1.03125 0.5625 0.359375 1.04688 0.53125 0.546875 0.859375 0.234375 
0.578125 0.859375 0.25 0.578125 1.125 0.921875 0.59375 1.125 0.9375 
0.453125 1.04688 0.6875 0.46875 1.10938 0.828125 0.484375 0.578125 0.75 
0.46875 0.859375 0.21875 
METADATA
INFORMATION 2
NAME L2_NORM_RANGE LOCATION vtkDataArray
DATA 2 0.266084 2.08194 
NAME L2_NORM_FINITE_RANGE LOCATION vtkDataArray
DATA 2 0.266084 2.08194 

CELL_TYPES 0

POINT_DATA 52
SCALARS CriticalType int
LOOKUP_TABLE default
3 2 3 2 3 3 2 3 3 
3 2 3 2 3 2 3 3 2 
3 2 3 2 3 2 3 2 3 
3 2 0 1 0 1 0 1 0 
0 1 0 1 0 1 0 1 0 
1 0 1 2 2 2 2 
METADATA
INFORMATION 0

FIELD FieldData 5
NodeId 1 52 int
0 1 2 3 4 5 6 7 8 
9 10 11 12 13 14 15 16 17 
18 19 20 21 22 23 24 25 26 
27 28 29 30 31 32 33 34 35 
36 37 38 39 40 41 42 43 44 
45 46 47 48 49 50 51 
METADATA
INFORMATION 0

Scalar 1 52 float
0.650764 0.596368 0.625801 0.5714 0.624854 0.603432 0.548457 0.601721 0.594703 
0.589033 0.567459 0.558111 0.522223 0.533412 0.473012 0.512232 0.472942 0.433361 
0.2724 0.190475 0.272381 0.190105 0.240188 0.187551 0.237855 0.205578 0.233383 
0.0765297 0.0503301 0 0.0499091 0.000680008 0.0346762 0.00108416 0.0350971 0.00754138 
0.00904647 0.037833 0.0127607 0.0363323 0.0138597 0.0808238 0.0146709 0.0479429 0.0231239 
0.0630046 0.0252955 0.055186 0.543084 0.545658 0.188451 0.395243 
METADATA
INFORMATION 0

VertexId 1 52 int
381471 397791 479646 463327 406048 348766 340062 323998 455135 
430685 422430 274590 299424 12319 28638 28574 52959 53087 
387227 387422 379042 116898 2203 149659 373334 373143 2210 
5023 172003 1886 41168 323856 520796 381166 520867 520862 
397397 405588 283357 275168 134618 151065 299159 282839 126435 
134629 487973 496166 364765 438750 395615 118238 
METADATA
INFORMATION 0

RegionSize 1 52 int
23 58 23 47 11 34 8 27 11 
8 58 20 2085 17 37 5 7 115 
547 118 460 27 87 16940 7 781 62 
6012 63271 6606 63271 36893 1225 42600 7600 8 
21 119151 8 9894 16 16940 5 98642 11 
12633 0 18105 170 15 55 7586 
METADATA
INFORMATION 0

RegionSpan 1 52 int
0 0 0 0 0 0 0 0 0 
0 0 0 0 0 0 0 0 0 
0 0 0 0 0 0 0 0 0 
0 1 0 1 0 0 0 0 0 
0 0 0 0 0 0 0 1 0 
0 0 0 0 0 0 0 
METADATA
INFORMATION 0

