# vtk DataFile Version 4.2
vtk output
ASCII
DATASET UNSTRUCTURED_GRID
POINTS 102 float
0.453125 1.35938 0.78125 0.46875 1.35938 0.734375 0.5 1.1875 0.6875 
0.5 1.25 0.6875 0.453125 1.29688 0.578125 0.5 1.21875 0.53125 
0.515625 1.40625 0.703125 0.484375 1.20312 0.90625 0.46875 1.14062 0.890625 
0.4375 1.48438 0.6875 0.4375 1.45312 0.703125 0.453125 1.15625 0.625 
0.46875 1.17188 0.640625 0.484375 1.15625 0.515625 0.484375 1.14062 0.53125 
0.484375 1.07812 0.53125 0.453125 1.125 0 0.453125 1.0625 0.046875 
0.484375 0.953125 0.875 0.484375 1.01562 0.875 0.484375 1 0.921875 
0.46875 0.9375 0.90625 0.46875 0.921875 0.640625 0.46875 0.953125 0.640625 
0.5 1.03125 0.875 0.5 1.07812 0.859375 0.46875 1.03125 0.59375 
0.46875 1.04688 0.609375 0.484375 1.10938 0.859375 0.453125 1.07812 0.421875 
0.5 1.09375 0.4375 0.53125 1.26562 0.546875 0.515625 1.28125 0.546875 
0.46875 1.10938 0.984375 0.515625 1.17188 0.96875 0.484375 1.04688 0.078125 
0.46875 0.953125 0.984375 0.484375 0.921875 0.9375 0.421875 1.39062 0.59375 
0.421875 1.375 0.609375 0.484375 0.953125 0.015625 0.484375 0.9375 0.046875 
0.46875 0.921875 0.46875 0.46875 0.921875 0.484375 0.484375 0.96875 0.328125 
0.484375 1 0.359375 0.484375 0.90625 0.046875 0.46875 0.96875 0.203125 
0.46875 0.953125 0.265625 0.484375 1.03125 0.46875 0.484375 1.04688 0.46875 
0.546875 1.35938 0.578125 0.546875 1.375 0.609375 0.421875 0.53125 0.71875 
0.46875 0.578125 0.703125 0.53125 0.53125 0.75 0.484375 0.578125 0.75 
0.421875 0.53125 0 0.421875 0.53125 0.21875 0.53125 0.53125 0 
0.53125 0.53125 0.234375 0.46875 0.453125 0 0.34375 0.015625 0.421875 
0.71875 1.20312 0.90625 0.5 1.35938 0.953125 0.34375 1.32812 0.90625 
0.34375 1.3125 0.90625 0.484375 1.375 0.9375 0.359375 1.32812 0.921875 
0.34375 1.32812 0.921875 0.375 1.32812 0.9375 0.375 1.32812 0.953125 
0.640625 1.14062 0.765625 0.65625 1.17188 0.78125 0.359375 1.10938 0.9375 
0.34375 1.125 0.9375 0.625 1.1875 0.546875 0.625 1.20312 0.546875 
0.609375 1.17188 0.578125 0.609375 1.1875 0.578125 0.390625 0.953125 0.234375 
0.359375 0.953125 0.25 0.5625 0.953125 0.265625 0.578125 0.96875 0.203125 
0.421875 1.1875 0.90625 0.390625 1.15625 0.890625 0.515625 1.26562 0.625 
0.53125 1.25 0.625 0.53125 1.23438 0.640625 0.59375 1.21875 0.671875 
0.59375 1.23438 0.671875 0.5 1.28125 0.609375 0.515625 1.28125 0.609375 
0.421875 1.04688 0.078125 0.40625 1.03125 0.0625 0.375 1.26562 0.765625 
0.390625 1.20312 0.75 0.4375 1.29688 0.578125 0.4375 1.03125 0 
0.546875 1.20312 0.625 0.46875 0.984375 0.203125 0.484375 1 0.828125 

METADATA
INFORMATION 2
NAME L2_NORM_RANGE LOCATION vtkDataArray
DATA 2 0.544414 1.73388 
NAME L2_NORM_FINITE_RANGE LOCATION vtkDataArray
DATA 2 0.544414 1.73388 

CELL_TYPES 0

POINT_DATA 102
SCALARS CriticalType int
LOOKUP_TABLE default
3 2 3 2 3 2 3 3 2 
3 2 3 2 3 2 3 3 2 
3 2 3 2 3 2 3 2 3 
2 3 3 2 3 2 3 2 3 
3 2 3 2 3 2 3 2 3 
2 3 3 2 3 2 3 2 3 
2 3 2 3 2 3 2 0 1 
0 1 0 1 0 0 1 0 1 
0 1 0 1 0 1 0 1 0 
1 0 1 0 1 0 1 0 0 
1 0 1 0 1 0 1 2 2 
1 2 2 
METADATA
INFORMATION 0

FIELD FieldData 5
NodeId 1 102 int
0 1 2 3 4 5 6 7 8 
9 10 11 12 13 14 15 16 17 
18 19 20 21 22 23 24 25 26 
27 28 29 30 31 32 33 34 35 
36 37 38 39 40 41 42 43 44 
45 46 47 48 49 50 51 52 53 
54 55 56 57 58 59 60 61 62 
63 64 65 66 67 68 69 70 71 
72 73 74 75 76 77 78 79 80 
81 82 83 84 85 86 87 88 89 
90 91 92 93 94 95 96 97 98 
99 100 101 
METADATA
INFORMATION 0

Scalar 1 102 float
0.670314 0.521578 0.615992 0.562276 0.614736 0.530228 0.59951 0.582074 0.501039 
0.575654 0.497039 0.568555 0.512531 0.567917 0.535273 0.566876 0.556175 0.423666 
0.541885 0.501139 0.540368 0.489379 0.539806 0.50306 0.535151 0.504048 0.534346 
0.495534 0.533676 0.531948 0.459849 0.526909 0.50104 0.503437 0.412502 0.48685 
0.483549 0.443554 0.472948 0.44103 0.464208 0.420134 0.456772 0.43192 0.449556 
0.41364 0.448486 0.437341 0.412521 0.385477 0.363266 0.354539 0.330083 0.27245 
0.191486 0.272226 0.19088 0.234139 0.183941 0.233888 0.18933 0 0.049894 
0.000411141 0.0355909 0.00329443 0.037484 0.00971872 0.012013 0.0451866 0.0145315 0.0424529 
0.0165993 0.0491596 0.018363 0.0552863 0.0213407 0.0485301 0.0321225 0.0555609 0.0392528 
0.0764112 0.0436738 0.0889914 0.0438422 0.0989709 0.069684 0.125854 0.0887759 0.102804 
0.124903 0.134687 0.157906 0.138229 0.166351 0.217016 0.26867 0.528385 0.411088 
0.126978 0.408962 0.495309 
METADATA
INFORMATION 0

VertexId 1 102 int
415197 390622 365344 365600 308445 283552 374433 480095 471646 
366556 374620 332445 340702 275103 283231 282975 4637 28957 
462687 462943 487455 479006 339678 339806 463008 455008 315550 
323806 455135 225629 233888 291938 292001 520670 512737 45279 
520030 495327 317019 325147 12127 28447 249566 257758 176031 
192543 28319 110494 143198 250015 250079 308707 325155 379035 
371038 395426 395615 2203 116891 2210 125090 1886 221270 
480110 505312 480598 480534 497183 488791 488790 496984 505176 
406121 414442 496087 496150 291624 291688 307943 308007 126809 
134999 143204 110501 480027 471705 332897 332834 340962 357286 
357350 324768 324769 45275 37018 406616 398169 308444 4252 
332643 110558 438303 
METADATA
INFORMATION 0

RegionSize 1 102 int
388 123 34 135 23 1 37 29 15 
13 33 11 155 14 4 5 62 26 
17 0 10 684 20 33 13 0 6 
5 6 23 387 3 74 50 120 62 
13 67 2 255 14 10 6 514 17 
30 5 7 2 0 1781 3 3943 545 
50 445 139 96 2220 67 586 6475 108522 
117344 14750 1 55102 1 0 61432 0 33951 
17 35916 7 1243 3 17365 2 30772 18 
5376 11 3249 21 5792 2 0 5 6 
354 1 1137 8 2220 13 3943 41 11 
4398 1897 138 
METADATA
INFORMATION 0

RegionSpan 1 102 int
0 0 0 0 0 0 0 0 0 
0 0 0 0 0 0 0 0 0 
0 0 0 0 0 0 0 0 0 
0 0 0 0 0 0 0 0 0 
0 0 0 0 0 0 0 0 0 
0 0 0 0 0 0 0 0 0 
0 0 0 0 0 0 0 0 1 
0 0 0 0 0 0 0 0 0 
0 1 0 0 0 0 0 0 0 
0 0 0 0 0 0 0 0 0 
0 0 0 0 0 0 0 0 0 
0 0 0 
METADATA
INFORMATION 0

