# vtk DataFile Version 4.2
vtk output
ASCII
DATASET UNSTRUCTURED_GRID
POINTS 48 float
0.46875 1.26562 0.703125 0.46875 1.26562 0.734375 0.46875 1.17188 0.796875 
0.46875 1.15625 0.78125 0.46875 1.1875 0.765625 0.46875 1.09375 0.953125 
0.5 1.10938 0.921875 0.5 1.15625 0.875 0.5 1.17188 0.890625 
0.5 1.15625 0.90625 0.515625 1.15625 0.5625 0.453125 1.10938 0.59375 
0.484375 1.03125 0.03125 0.46875 0.890625 0.234375 0.453125 1 0.4375 
0.484375 1.03125 0.484375 0.484375 0.890625 0.5625 0.484375 0.828125 0.609375 
0.484375 0.90625 0.625 0.484375 0.953125 0.625 0.484375 0.96875 0.40625 
0.484375 0.96875 0.421875 0.53125 0.53125 0.734375 0.53125 0.53125 0.3125 
0.421875 0.53125 0.6875 0.453125 0.578125 0.6875 0.53125 0.53125 0.015625 
0.421875 0.53125 0 0.421875 0.53125 0.21875 0.46875 0.453125 0 
0.609375 0.046875 0.40625 0.703125 1.10938 0.90625 0.625 1.125 0.875 
0.25 1.125 0.609375 0.46875 1.20312 0.5 0.328125 1.03125 0.765625 
0.328125 1.0625 0.765625 0.609375 1.14062 0.875 0.609375 1.0625 0.671875 
0.625 1.04688 0.703125 0.359375 1.03125 0.578125 0.34375 1.03125 0.5625 
0.40625 0.890625 0.265625 0.375 0.90625 0.1875 0.5625 0.890625 0.234375 
0.578125 0.890625 0.234375 0.484375 0.578125 0.71875 0.484375 1.14062 0.84375 

METADATA
INFORMATION 2
NAME L2_NORM_RANGE LOCATION vtkDataArray
DATA 2 0.651958 1.59574 
NAME L2_NORM_FINITE_RANGE LOCATION vtkDataArray
DATA 2 0.651958 1.59574 

CELL_TYPES 0

POINT_DATA 48
SCALARS CriticalType int
LOOKUP_TABLE default
3 2 3 2 3 3 2 3 2 
3 3 2 3 2 3 2 3 2 
3 2 3 2 3 2 3 2 3 
3 2 0 1 0 1 0 1 0 
1 0 0 1 0 1 0 1 0 
1 2 2 
METADATA
INFORMATION 0

FIELD FieldData 5
NodeId 1 48 int
0 1 2 3 4 5 6 7 8 
9 10 11 12 13 14 15 16 17 
18 19 20 21 22 23 24 25 26 
27 28 29 30 31 32 33 34 35 
36 37 38 39 40 41 42 43 44 
45 46 47 
METADATA
INFORMATION 0

Scalar 1 48 float
0.666936 0.625195 0.654337 0.607732 0.653659 0.590476 0.530634 0.565462 0.538317 
0.562777 0.560672 0.506643 0.52894 0.395888 0.518204 0.490724 0.515313 0.467808 
0.511349 0.483807 0.476932 0.430875 0.271951 0.190095 0.271658 0.188425 0.235185 
0.234084 0.184414 0 0.0499141 0.000571228 0.0357251 0.000586701 0.0390693 0.0120254 
0.0392893 0.0127738 0.0151967 0.0403823 0.0217373 0.0436417 0.035799 0.0728663 0.0456503 
0.0708861 0.187457 0.507387 
METADATA
INFORMATION 0

VertexId 1 48 int
373854 390238 422622 414366 406302 504222 487904 463520 471776 
479904 299681 315869 20639 126558 233501 258207 298591 322911 
331423 331615 216991 225183 387234 166050 362651 362845 10402 
2203 116891 1886 213223 479725 463400 324112 267102 405653 
405781 463463 356647 372968 307351 299158 142938 102040 126564 
126565 379231 447071 
METADATA
INFORMATION 0

RegionSize 1 48 int
44 32 26 604 17 20 41 4 8 
3 49 197 202 9552 9 109 11 648 
7 245 13 862 446 32 579 66 71 
94 21762 6528 155869 49424 12426 56023 1690 4 
9475 7 11 40140 2 155150 12 21762 7 
1397 311 11 
METADATA
INFORMATION 0

RegionSpan 1 48 int
0 0 0 0 0 0 0 0 0 
0 0 0 0 0 0 0 0 0 
0 0 0 0 0 0 0 0 0 
0 0 0 0 0 0 0 0 0 
0 0 0 0 0 1 0 0 0 
0 0 0 
METADATA
INFORMATION 0

