# vtk DataFile Version 4.2
vtk output
ASCII
DATASET UNSTRUCTURED_GRID
POINTS 40 float
0.46875 1.10938 0.703125 0.46875 1.09375 0.75 0.46875 1.09375 0.765625 
0.46875 1.09375 0.859375 0.484375 1.04688 0.84375 0.484375 1.03125 0.9375 
0.46875 1.09375 0.875 0.5 1.07812 0.546875 0.46875 1.07812 0.578125 
0.46875 0.921875 0.875 0.46875 0.953125 0.859375 0.46875 1 0 
0.46875 0.859375 0.265625 0.484375 0.828125 0.5625 0.484375 0.859375 0.5625 
0.484375 0.921875 0.40625 0.484375 0.9375 0.421875 0.53125 0.53125 0.734375 
0.53125 0.53125 0.234375 0.421875 0.53125 0.6875 0.453125 0.578125 0.6875 
0.421875 0.53125 0 0.421875 0.53125 0.21875 0.53125 0.53125 0 
0.46875 0.453125 0 0.359375 0.0625 0.328125 0.265625 1.04688 0.90625 
0.46875 1.20312 0.265625 0.6875 1.04688 0.90625 0.640625 1.04688 0.84375 
0.609375 1.0625 0.859375 0.609375 0.984375 0.71875 0.640625 1.03125 0.828125 
0.546875 0.84375 0.21875 0.5625 0.84375 0.234375 0.359375 0.984375 0.546875 
0.34375 1.01562 0.546875 0.40625 0.84375 0.25 0.390625 0.859375 0.265625 
0.484375 0.578125 0.71875 
METADATA
INFORMATION 2
NAME L2_NORM_RANGE LOCATION vtkDataArray
DATA 2 0.490635 1.54593 
NAME L2_NORM_FINITE_RANGE LOCATION vtkDataArray
DATA 2 0.490635 1.54593 

CELL_TYPES 0

POINT_DATA 40
SCALARS CriticalType int
LOOKUP_TABLE default
3 2 3 3 2 3 2 3 2 
3 2 3 2 3 2 3 2 3 
2 3 2 3 2 3 0 1 0 
1 0 1 0 0 1 0 1 0 
1 0 1 2 
METADATA
INFORMATION 0

FIELD FieldData 5
NodeId 1 40 int
0 1 2 3 4 5 6 7 8 
9 10 11 12 13 14 15 16 17 
18 19 20 21 22 23 24 25 26 
27 28 29 30 31 32 33 34 35 
36 37 38 39 
METADATA
INFORMATION 0

Scalar 1 40 float
0.64581 0.618794 0.644067 0.583472 0.55286 0.569064 0.5327 0.560291 0.533177 
0.534775 0.512706 0.533897 0.386856 0.47643 0.448243 0.47167 0.442641 0.272522 
0.190323 0.272147 0.187663 0.233742 0.18483 0.233697 0 0.0499075 0.000607172 
0.0427116 0.000860721 0.0338608 0.0042881 0.00801527 0.038107 0.0149039 0.0598194 0.0214945 
0.0493936 0.0277694 0.0685635 0.1881 
METADATA
INFORMATION 0

VertexId 1 40 int
373214 397726 405918 455070 446687 495775 463262 291168 307550 
462558 454494 4126 142814 298335 298463 216799 225055 387234 
125090 362651 362845 2203 116891 2210 1886 172311 479441 
144222 479468 446697 454951 380903 438441 118179 126372 290775 
290902 134554 142809 379231 
METADATA
INFORMATION 0

RegionSize 1 40 int
19 206 6 10 98 38 177 14 3 
3 798 191 7842 4 93 6 1085 452 
23 596 260 94 22808 66 6538 158048 65310 
127963 35917 14259 4 50 21498 6 10710 7 
49003 13 22808 30 
METADATA
INFORMATION 0

RegionSpan 1 40 int
0 0 0 0 0 0 0 0 0 
0 0 0 0 0 0 0 0 0 
0 0 0 0 0 0 0 0 0 
0 0 0 0 0 0 0 0 0 
0 0 0 0 
METADATA
INFORMATION 0

