# vtk DataFile Version 4.2
vtk output
ASCII
DATASET UNSTRUCTURED_GRID
POINTS 82 float
0.5 1.3125 0.734375 0.484375 1.125 0.765625 0.484375 1.1875 0.640625 
0.46875 1.26562 0.640625 0.46875 1.23438 0.875 0.46875 1.17188 0.84375 
0.46875 1.3125 0.640625 0.46875 1.17188 0.828125 0.484375 1.0625 0.765625 
0.484375 1.45312 0.6875 0.5 1.42188 0.703125 0.4375 1.29688 0.734375 
0.453125 1.3125 0.71875 0.453125 1.15625 0.53125 0.46875 1.0625 0.46875 
0.484375 0.890625 0.8125 0.484375 0.9375 0.8125 0.46875 1.0625 0.046875 
0.484375 1.07812 0.03125 0.484375 1.15625 0.984375 0.484375 1.1875 0.953125 
0.5 1.14062 0 0.46875 0.90625 0.609375 0.484375 0.875 0.640625 
0.46875 0.890625 0.859375 0.46875 0.90625 0.84375 0.5 1.45312 0.765625 
0.515625 1.4375 0.765625 0.484375 1.0625 0.421875 0.515625 1.07812 0.578125 
0.5 1.0625 0.5625 0.46875 0.953125 0.53125 0.453125 0.984375 0.53125 
0.515625 1.20312 0.5625 0.515625 1.21875 0.578125 0.484375 0.953125 0.984375 
0.46875 0.921875 0.953125 0.46875 1.03125 0.9375 0.484375 1.01562 0.9375 
0.484375 1.01562 0.109375 0.46875 1.01562 0.078125 0.46875 1 0.375 
0.46875 1.01562 0.390625 0.5 1.03125 0.96875 0.484375 1.03125 0.953125 
0.421875 0.53125 0.734375 0.421875 0.53125 0.1875 0.53125 0.53125 0.75 
0.484375 0.578125 0.75 0.421875 0.53125 0 0.53125 0.53125 0 
0.53125 0.53125 0.234375 0.46875 1.34375 0 0.484375 1.9375 0.265625 
0.46875 0.453125 0 0.21875 0.046875 0.015625 0.203125 1.15625 0.75 
0.65625 1.21875 0.84375 0.328125 1.10938 0.78125 0.328125 1.14062 0.8125 
0.609375 1.21875 0.859375 0.34375 1.23438 0.8125 0.296875 1.21875 0.828125 
0.34375 1.14062 0.5625 0.328125 1.15625 0.515625 0.46875 1.29688 0.984375 
0.4375 1.29688 0.984375 0.5625 0.9375 0.234375 0.59375 0.9375 0.25 
0.390625 0.953125 0.234375 0.375 0.953125 0.21875 0.46875 1.46875 0.734375 
0.40625 1.42188 0.734375 0.40625 1.21875 0.859375 0.390625 1.20312 0.875 
0.4375 1.14062 0 0.421875 1.17188 0 0.46875 1.375 0.6875 
0.5 1.29688 0.78125 0.46875 0.578125 0.734375 0.46875 0.953125 0.21875 
0.5 1.0625 0.625 
METADATA
INFORMATION 2
NAME L2_NORM_RANGE LOCATION vtkDataArray
DATA 2 0.224261 2.01472 
NAME L2_NORM_FINITE_RANGE LOCATION vtkDataArray
DATA 2 0.224261 2.01472 

CELL_TYPES 0

POINT_DATA 82
SCALARS CriticalType int
LOOKUP_TABLE default
3 2 3 2 3 2 3 3 3 
3 2 3 2 3 2 3 2 3 
2 3 2 3 3 2 3 2 3 
2 3 3 2 3 2 3 2 3 
2 3 2 3 2 3 2 3 2 
3 2 3 2 3 3 2 3 2 
0 1 0 1 0 1 0 0 1 
0 1 0 1 0 1 0 1 0 
1 0 1 0 1 2 2 2 2 
2 
METADATA
INFORMATION 0

FIELD FieldData 5
NodeId 1 82 int
0 1 2 3 4 5 6 7 8 
9 10 11 12 13 14 15 16 17 
18 19 20 21 22 23 24 25 26 
27 28 29 30 31 32 33 34 35 
36 37 38 39 40 41 42 43 44 
45 46 47 48 49 50 51 52 53 
54 55 56 57 58 59 60 61 62 
63 64 65 66 67 68 69 70 71 
72 73 74 75 76 77 78 79 80 
81 
METADATA
INFORMATION 0

Scalar 1 82 float
0.697128 0.59138 0.646771 0.602883 0.642088 0.568132 0.626565 0.621686 0.613073 
0.600345 0.56563 0.594447 0.566482 0.550465 0.474659 0.541869 0.517451 0.534023 
0.431962 0.526445 0.474671 0.524351 0.523416 0.491374 0.520554 0.487586 0.513857 
0.479185 0.513079 0.49786 0.472063 0.490273 0.4673 0.486019 0.456322 0.482805 
0.439908 0.479433 0.441115 0.476501 0.428411 0.476314 0.454766 0.440147 0.415057 
0.272343 0.189897 0.27196 0.189517 0.2405 0.233075 0.189245 0.0917914 0.0499966 
0 0.049892 0.000657223 0.0349309 0.00919083 0.0403751 0.00963086 0.0139703 0.0378683 
0.0167653 0.0449838 0.0255304 0.0520335 0.0323179 0.0741184 0.0337578 0.0863911 0.0808003 
0.104362 0.180391 0.208197 0.203508 0.250111 0.553197 0.535739 0.189441 0.408653 
0.471206 
METADATA
INFORMATION 0

VertexId 1 82 int
390432 406047 340767 341086 463838 447198 341278 439006 405791 
366431 374496 390364 382237 283293 250142 429663 429855 28958 
20831 520863 504607 4704 323230 339487 454238 446110 407392 
407329 225567 307553 299296 282462 282589 299873 308129 520031 
503518 495774 495711 61535 45150 200734 208990 512160 503967 
387227 100507 395426 395615 2203 2210 125090 5534 147231 
1886 8398 397965 447402 414165 430677 455591 431062 439187 
299606 275093 521438 521436 126756 134950 126809 118616 391070 
390874 455578 463705 4700 4827 366110 414944 387422 118622 
332064 
METADATA
INFORMATION 0

RegionSize 1 82 int
72 53 14 71 68 110 9 22 6 
5 37 5 2 68 15 10 392 43 
7 17 64 39 18 66 11 143 3 
101 17 7 2 14 273 2 49 19 
700 2 27 28 77 4 348 2 189 
556 7 462 5 70 71 12662 5996 18670 
6482 18670 107271 21929 17 59170 8 22 23396 
5 116963 3 53739 16 5843 10 5550 9 
12662 4 2858 4 8197 107 200 13 8197 
96 
METADATA
INFORMATION 0

RegionSpan 1 82 int
0 0 0 0 0 0 0 0 0 
0 0 0 0 0 0 0 0 0 
0 0 0 0 0 0 0 0 0 
0 0 0 0 0 0 0 0 0 
0 0 0 0 0 0 0 0 0 
0 0 0 0 0 0 1 0 1 
0 1 0 0 0 0 0 0 0 
0 1 0 0 0 0 0 0 0 
1 0 0 0 0 0 0 0 0 
0 
METADATA
INFORMATION 0

