# vtk DataFile Version 4.2
vtk output
ASCII
DATASET UNSTRUCTURED_GRID
POINTS 42 float
0.46875 1.14062 0.703125 0.46875 1.09375 0.75 0.46875 1.09375 0.765625 
0.453125 1.10938 0.890625 0.46875 1.10938 0.859375 0.484375 1.09375 0.84375 
0.46875 0.96875 0.796875 0.46875 0.984375 0.796875 0.484375 1.01562 0 
0.484375 0.875 0.234375 0.484375 0.90625 0.578125 0.46875 0.953125 0.578125 
0.46875 0.890625 0.34375 0.46875 0.921875 0.359375 0.46875 0.859375 0 
0.46875 0.921875 0.015625 0.421875 0.53125 0.71875 0.46875 0.578125 0.734375 
0.53125 0.53125 0.75 0.484375 0.578125 0.75 0.53125 0.53125 0 
0.53125 0.53125 0.234375 0.421875 0.53125 0 0.421875 0.53125 0.203125 
0.46875 0.453125 0 0.296875 0.03125 0.359375 0.71875 1.04688 0.78125 
0.609375 1.04688 0.671875 0.234375 1.04688 0.703125 0.375 1.125 0.9375 
0.40625 0.859375 0.25 0.390625 0.859375 0.265625 0.359375 1.07812 0.84375 
0.3125 1.09375 0.84375 0.390625 1.14062 0.9375 0.609375 1.07812 0.625 
0.546875 0.859375 0.21875 0.578125 0.859375 0.234375 0.578125 1.04688 0.890625 
0.609375 1.04688 0.9375 0.484375 1.17188 0.8125 0.453125 1.1875 0.203125 

METADATA
INFORMATION 2
NAME L2_NORM_RANGE LOCATION vtkDataArray
DATA 2 0.467185 1.53173 
NAME L2_NORM_FINITE_RANGE LOCATION vtkDataArray
DATA 2 0.467185 1.53173 

CELL_TYPES 0

POINT_DATA 42
SCALARS CriticalType int
LOOKUP_TABLE default
3 2 3 3 2 3 3 2 3 
2 3 2 3 2 3 2 3 2 
3 2 3 2 3 2 0 1 0 
1 0 1 0 1 0 1 0 0 
0 1 0 1 2 1 
METADATA
INFORMATION 0

FIELD FieldData 5
NodeId 1 42 int
0 1 2 3 4 5 6 7 8 
9 10 11 12 13 14 15 16 17 
18 19 20 21 22 23 24 25 26 
27 28 29 30 31 32 33 34 35 
36 37 38 39 40 41 
METADATA
INFORMATION 0

Scalar 1 42 float
0.660558 0.600535 0.652979 0.618026 0.585671 0.611893 0.573105 0.549774 0.516856 
0.388653 0.502886 0.444107 0.447384 0.416924 0.427368 0.386655 0.273268 0.190572 
0.271596 0.190062 0.234327 0.189993 0.232953 0.189935 0 0.0499084 0.000337553 
0.0380552 0.00137656 0.0346979 0.00500494 0.0690577 0.00667023 0.0367326 0.0115559 0.0163142 
0.021468 0.0608972 0.0374463 0.0677194 0.545778 0.041621 
METADATA
INFORMATION 0

VertexId 1 42 int
373342 397726 405918 471517 455134 446879 421790 421854 4191 
126495 306847 307038 183902 192222 3550 11998 379035 387422 
395426 395615 2210 125090 2203 108699 1886 188563 413934 
356583 372943 496152 134618 142809 446807 446868 496217 332135 
118243 126437 471269 495847 430815 111389 
METADATA
INFORMATION 0

RegionSize 1 42 int
43 208 37 8 83 3 2 16 180 
64 19 465 6 644 23 8059 550 39 
455 4 61 3 75 23832 6491 155255 52756 
16434 37343 6004 9 23832 12 19121 0 9 
10 8144 12 1130 1229 185408 
METADATA
INFORMATION 0

RegionSpan 1 42 int
0 0 0 0 0 0 0 0 0 
0 0 0 0 0 0 0 0 0 
0 0 0 0 0 0 0 0 0 
0 0 0 0 0 0 0 0 0 
0 0 0 0 0 1 
METADATA
INFORMATION 0

