# vtk DataFile Version 4.2
vtk output
ASCII
DATASET UNSTRUCTURED_GRID
POINTS 76 float
0.4375 1.26562 0.703125 0.421875 1.23438 0.71875 0.515625 1.375 0.765625 
0.46875 1.28125 0.78125 0.484375 1.28125 0.859375 0.46875 1.15625 0.84375 
0.46875 1.23438 0.78125 0.46875 1.1875 0.546875 0.453125 1.3125 0.59375 
0.453125 1.14062 0.796875 0.46875 1.20312 0.796875 0.421875 1.21875 0.71875 
0.4375 1.35938 0.59375 0.453125 1.15625 0.96875 0.46875 1.03125 0.9375 
0.5 1.10938 0.65625 0.5 1.17188 0.671875 0.46875 0.96875 0.75 
0.46875 1.04688 0.765625 0.46875 1 0.828125 0.453125 1.07812 0.8125 
0.46875 1.07812 0.4375 0.5 1.10938 0.453125 0.46875 0.9375 0.796875 
0.484375 0.90625 0.765625 0.46875 0.96875 0.703125 0.46875 0.90625 0.734375 
0.453125 1.125 0 0.484375 1.0625 0.046875 0.46875 1 0.53125 
0.484375 0.890625 0.5625 0.484375 1 0.375 0.484375 1.03125 0.390625 
0.46875 0.921875 0.96875 0.5 1.01562 0.09375 0.46875 1 0.109375 
0.484375 0.984375 0.09375 0.46875 0.921875 0.484375 0.484375 0.890625 0.5 
0.484375 1 0 0.46875 1.01562 0.015625 0.484375 0.96875 0.171875 
0.46875 0.96875 0.15625 0.484375 0.953125 0.21875 0.484375 0.953125 0.25 
0.53125 0.53125 0.75 0.484375 0.578125 0.75 0.421875 0.53125 0.71875 
0.46875 0.578125 0.765625 0.421875 0.53125 0.015625 0.421875 0.53125 0.1875 
0.53125 0.53125 0 0.53125 0.53125 0.21875 0.515625 1.34375 0 
0.390625 1.98438 0.28125 0.46875 0.453125 0 0.296875 0.015625 0.421875 
0.203125 1.1875 0.828125 0.5625 1.29688 0.484375 0.71875 1.17188 0.859375 
0.390625 1.28125 0.9375 0.359375 1.28125 0.921875 0.640625 1.09375 0.71875 
0.640625 1.10938 0.75 0.625 1.07812 0.6875 0.625 1.09375 0.6875 
0.390625 0.953125 0.234375 0.359375 0.953125 0.21875 0.5625 0.9375 0.234375 
0.59375 0.953125 0.296875 0.515625 1.125 0 0.53125 1.15625 0 
0.46875 1.35938 0.734375 0.46875 1.35938 0.640625 0.484375 0.921875 0.9375 
0.484375 0.96875 0.203125 
METADATA
INFORMATION 2
NAME L2_NORM_RANGE LOCATION vtkDataArray
DATA 2 0.516098 2.04192 
NAME L2_NORM_FINITE_RANGE LOCATION vtkDataArray
DATA 2 0.516098 2.04192 

CELL_TYPES 0

POINT_DATA 76
SCALARS CriticalType int
LOOKUP_TABLE default
3 2 3 2 3 2 3 3 2 
3 2 3 3 3 2 3 2 3 
2 3 2 3 2 3 2 3 2 
3 2 3 2 3 2 3 3 3 
2 3 2 3 2 3 2 3 2 
3 2 3 2 3 2 3 2 3 
2 0 1 0 1 0 0 1 0 
1 0 1 0 1 0 1 0 1 
2 2 2 2 
METADATA
INFORMATION 0

FIELD FieldData 5
NodeId 1 76 int
0 1 2 3 4 5 6 7 8 
9 10 11 12 13 14 15 16 17 
18 19 20 21 22 23 24 25 26 
27 28 29 30 31 32 33 34 35 
36 37 38 39 40 41 42 43 44 
45 46 47 48 49 50 51 52 53 
54 55 56 57 58 59 60 61 62 
63 64 65 66 67 68 69 70 71 
72 73 74 75 
METADATA
INFORMATION 0

Scalar 1 76 float
0.66036 0.596337 0.649037 0.600057 0.638916 0.55518 0.634074 0.623859 0.567513 
0.619528 0.569699 0.618071 0.593377 0.587046 0.449974 0.581639 0.556632 0.576756 
0.542745 0.572786 0.544438 0.562797 0.467743 0.558133 0.519858 0.552565 0.527256 
0.544244 0.454374 0.506264 0.47043 0.4927 0.451688 0.487615 0.486786 0.465965 
0.43217 0.465573 0.443102 0.460871 0.428018 0.440744 0.414611 0.439957 0.41135 
0.273221 0.189732 0.272094 0.190983 0.236251 0.188627 0.234361 0.184385 0.0804608 
0.049882 0 0.0499104 0.000720447 0.0252895 0.000792013 0.00656606 0.0289047 0.0165632 
0.0402021 0.0173785 0.0423833 0.0425013 0.0794302 0.0436075 0.0843518 0.148945 0.244311 
0.567365 0.552362 0.446105 0.410263 
METADATA
INFORMATION 0

VertexId 1 76 int
373852 381915 407073 414878 455839 447134 414686 291614 316701 
422493 422750 381851 316892 512669 495774 348640 357088 397214 
405726 438302 430429 233822 242144 421662 405151 372638 388766 
4637 28959 282654 298591 200735 209055 511710 53344 61470 
53215 257758 265823 4127 12382 94111 85918 118623 135007 
395426 395615 379035 403806 10395 100507 2210 116898 5537 
155609 1886 221267 439053 259300 455406 496793 488599 381353 
397801 364904 364968 126809 118615 126756 159590 4641 4770 
390622 341470 495327 110495 
METADATA
INFORMATION 0

RegionSize 1 76 int
30 74 14 45 70 8 10 41 38 
14 10 4 6 88 6 7 9 10 
237 12 16 24 329 16 932 18 134 
19 32 12 55 10 126 19 9 9 
11 3 869 12 40 4 18 7 29 
461 112 531 100 76 465 78 18343 5499 
147434 6918 141415 25233 19057 28701 15 79459 5 
28415 0 147434 13 2157 20 18343 19 8583 
51 80 66 8583 
METADATA
INFORMATION 0

RegionSpan 1 76 int
0 0 0 0 0 0 0 0 0 
0 0 0 0 0 0 0 0 0 
0 0 0 0 0 0 0 0 0 
0 0 0 0 0 0 0 0 0 
0 0 0 0 0 0 0 0 0 
0 0 0 0 0 0 0 0 0 
1 0 0 0 0 0 0 0 0 
0 0 1 0 0 0 0 0 0 
0 0 0 0 
METADATA
INFORMATION 0

