# vtk DataFile Version 4.2
vtk output
ASCII
DATASET UNSTRUCTURED_GRID
POINTS 52 float
0.484375 1.17188 0.71875 0.484375 1.17188 0.75 0.5 1.1875 0.765625 
0.46875 1.125 0.90625 0.46875 1.14062 0.828125 0.484375 1.10938 0.609375 
0.46875 1.04688 0.640625 0.453125 1.15625 0.796875 0.46875 1.17188 0.796875 
0.453125 1.07812 0.671875 0.46875 1.10938 0.671875 0.46875 1.1875 0.65625 
0.453125 1.03125 0.5 0.5 1.10938 0.5625 0.484375 1.01562 0.796875 
0.484375 1.0625 0.796875 0.484375 1.03125 0 0.484375 0.890625 0.25 
0.484375 0.890625 0.578125 0.484375 0.859375 0.59375 0.46875 0.859375 0.53125 
0.46875 0.9375 0.5 0.421875 0.53125 0.734375 0.46875 0.578125 0.734375 
0.53125 0.53125 0.71875 0.53125 0.53125 0.21875 0.421875 0.53125 0 
0.421875 0.53125 0.28125 0.53125 0.53125 0 0.484375 1.25 0 
0.546875 1.98438 0.3125 0.46875 0.453125 0 0.203125 0.09375 0.328125 
0.703125 1.07812 0.59375 0.515625 1.17188 0 0.265625 1.09375 0.921875 
0.609375 1.14062 0.84375 0.625 1.09375 0.84375 0.328125 1.03125 0.75 
0.3125 1.04688 0.765625 0.359375 1.04688 0.5625 0.34375 1.04688 0.546875 
0.40625 0.875 0.25 0.390625 0.875 0.28125 0.578125 1.14062 0.921875 
0.59375 1.14062 0.921875 0.546875 0.875 0.25 0.578125 0.875 0.25 
0.5 1.07812 0.5 0.5 1.0625 0.5 0.453125 1.10938 0.6875 
0.484375 0.578125 0.75 
METADATA
INFORMATION 2
NAME L2_NORM_RANGE LOCATION vtkDataArray
DATA 2 0.397133 2.08194 
NAME L2_NORM_FINITE_RANGE LOCATION vtkDataArray
DATA 2 0.397133 2.08194 

CELL_TYPES 0

POINT_DATA 52
SCALARS CriticalType int
LOOKUP_TABLE default
3 2 3 3 2 3 2 3 2 
3 2 3 3 2 3 2 3 2 
3 2 3 2 3 2 3 2 3 
2 3 3 2 0 1 0 1 0 
0 1 0 1 0 1 0 1 0 
1 0 1 0 1 2 2 
METADATA
INFORMATION 0

FIELD FieldData 5
NodeId 1 52 int
0 1 2 3 4 5 6 7 8 
9 10 11 12 13 14 15 16 17 
18 19 20 21 22 23 24 25 26 
27 28 29 30 31 32 33 34 35 
36 37 38 39 40 41 42 43 44 
45 46 47 48 49 50 51 
METADATA
INFORMATION 0

Scalar 1 52 float
0.658401 0.60021 0.631997 0.625897 0.5662 0.614445 0.555714 0.59726 0.573573 
0.596505 0.561701 0.593861 0.559203 0.492336 0.543374 0.520196 0.531712 0.399065 
0.492648 0.470533 0.461403 0.438425 0.27222 0.190338 0.272191 0.189932 0.240287 
0.188501 0.233279 0.0783968 0.0503156 0 0.049907 0.000936426 0.027322 0.00114809 
0.0131635 0.0356587 0.0131976 0.0367072 0.0132236 0.0479429 0.0179575 0.0846633 0.0316705 
0.0567114 0.0357461 0.0659811 0.248436 0.271827 0.557664 0.188464 
METADATA
INFORMATION 0

VertexId 1 52 int
381663 398047 406304 479774 438878 324063 340190 422557 422622 
356701 356830 348958 266397 299488 421983 422175 4255 134751 
306783 314847 282078 266014 387227 387422 379042 116898 2203 
149659 2210 5151 172003 1886 172429 315757 4833 487825 
447079 446888 397461 405716 299223 291030 134682 151065 488037 
488038 134691 134693 266592 266528 365021 395615 
METADATA
INFORMATION 0

RegionSize 1 52 int
25 38 10 54 34 25 308 7 26 
5 5 14 56 345 4 320 184 4761 
10 550 13 873 547 121 461 24 84 
1 63 6177 59622 6871 59622 20407 49619 18605 
6 6701 16 128751 5 93975 15 16266 4 
16240 12 10877 0 4761 18 16266 
METADATA
INFORMATION 0

RegionSpan 1 52 int
0 0 0 0 0 0 0 0 0 
0 0 0 0 0 0 0 0 0 
0 0 0 0 0 0 0 0 0 
0 0 0 1 0 1 0 0 0 
0 0 0 0 0 0 0 0 0 
0 0 0 0 0 0 0 
METADATA
INFORMATION 0

