# vtk DataFile Version 4.2
vtk output
ASCII
DATASET UNSTRUCTURED_GRID
POINTS 80 float
0.4375 1.375 0.765625 0.46875 1.34375 0.765625 0.484375 1.32812 0.765625 
0.484375 1.39062 0.6875 0.46875 1.17188 0.671875 0.484375 1.40625 0.75 
0.484375 1.35938 0.75 0.53125 1.35938 0.734375 0.515625 1.40625 0.734375 
0.484375 1.1875 0.53125 0.484375 1.25 0.578125 0.484375 1.23438 0.921875 
0.46875 1.32812 0.875 0.484375 1.125 0.734375 0.484375 1.15625 0.734375 
0.46875 1.14062 0.671875 0.484375 1.14062 0.84375 0.46875 1.15625 0.8125 
0.5 1.375 0.921875 0.46875 1.39062 0.890625 0.484375 0.96875 0.765625 
0.484375 1.01562 0.78125 0.484375 0.96875 0.84375 0.484375 1.04688 0.84375 
0.484375 1.14062 0.890625 0.46875 0.953125 0.859375 0.46875 1.09375 0.625 
0.46875 1.09375 0.640625 0.5 1.15625 0.015625 0.5 1.04688 0.109375 
0.546875 1.375 0.59375 0.53125 1.375 0.59375 0.46875 0.953125 0.9375 
0.46875 0.984375 0.921875 0.46875 1.04688 0.375 0.484375 1.0625 0.390625 
0.46875 0.921875 0.984375 0.46875 0.84375 0.953125 0.46875 0.921875 0 
0.46875 0.984375 0.03125 0.46875 1.03125 0.125 0.484375 1.01562 0.34375 
0.46875 1.01562 0.359375 0.46875 1.54688 0.734375 0.5 1.54688 0.734375 
0.46875 0.9375 0.046875 0.46875 0.953125 0.046875 0.53125 0.53125 0.734375 
0.484375 0.578125 0.75 0.421875 0.53125 0.75 0.46875 0.578125 0.765625 
0.53125 0.53125 0.015625 0.53125 0.53125 0.203125 0.421875 0.53125 0 
0.421875 0.53125 0.234375 0.46875 0.453125 0 0.328125 0.078125 0.25 
0.765625 1.23438 0.65625 0.3125 0.96875 0.984375 0.40625 0.953125 0.953125 
0.640625 1.29688 0.90625 0.65625 1.29688 0.921875 0.59375 1.14062 0.828125 
0.59375 1.20312 0.859375 0.53125 1.03125 0.921875 0.578125 1.03125 0.953125 
0.609375 1.20312 0.578125 0.609375 1.26562 0.5625 0.546875 1.39062 0.546875 
0.5625 1.39062 0.546875 0.578125 0.96875 0.25 0.59375 0.96875 0.265625 
0.390625 0.96875 0.234375 0.359375 0.96875 0.234375 0.53125 1.35938 0.625 
0.546875 1.34375 0.640625 0.5 1.3125 0.859375 0.515625 1.35938 0.875 
0.5 1.35938 0.703125 0.46875 0.984375 0.203125 
METADATA
INFORMATION 2
NAME L2_NORM_RANGE LOCATION vtkDataArray
DATA 2 0.419845 1.78385 
NAME L2_NORM_FINITE_RANGE LOCATION vtkDataArray
DATA 2 0.419845 1.78385 

CELL_TYPES 0

POINT_DATA 80
SCALARS CriticalType int
LOOKUP_TABLE default
3 2 3 3 2 3 2 3 2 
3 2 3 2 3 2 3 3 2 
3 2 3 2 3 2 3 2 3 
2 3 2 3 2 3 2 3 2 
3 2 3 2 3 3 2 3 2 
3 2 3 2 3 2 3 2 3 
2 0 1 0 1 0 0 1 0 
1 0 1 0 1 0 1 0 1 
0 1 0 1 0 1 2 2 
METADATA
INFORMATION 0

FIELD FieldData 5
NodeId 1 80 int
0 1 2 3 4 5 6 7 8 
9 10 11 12 13 14 15 16 17 
18 19 20 21 22 23 24 25 26 
27 28 29 30 31 32 33 34 35 
36 37 38 39 40 41 42 43 44 
45 46 47 48 49 50 51 52 53 
54 55 56 57 58 59 60 61 62 
63 64 65 66 67 68 69 70 71 
72 73 74 75 76 77 78 79 
METADATA
INFORMATION 0

Scalar 1 80 float
0.671665 0.623392 0.664331 0.653435 0.567385 0.644702 0.607036 0.618102 0.59196 
0.608605 0.52897 0.606257 0.536281 0.60594 0.583307 0.592517 0.577944 0.526362 
0.575487 0.530649 0.573528 0.53999 0.558895 0.52285 0.558651 0.513788 0.551339 
0.517667 0.54551 0.426897 0.520839 0.490038 0.511449 0.489737 0.492032 0.454066 
0.483772 0.452441 0.46229 0.412283 0.458995 0.450161 0.428133 0.440712 0.413952 
0.437628 0.408952 0.271454 0.189418 0.271424 0.19007 0.236481 0.186347 0.232652 
0.184974 0 0.0499208 0.000638455 0.0319654 0.00849059 0.0132047 0.0368559 0.0157007 
0.0416564 0.0191397 0.051239 0.0286408 0.0508029 0.0400863 0.0678237 0.0492517 0.0826508 
0.0590047 0.0915972 0.243308 0.287839 0.268483 0.316871 0.560472 0.410931 
METADATA
INFORMATION 0

VertexId 1 80 int
407068 406942 406879 366175 357086 399007 398815 390626 390817 
283423 308255 488415 464222 389663 389791 356958 447071 430750 
488992 472670 405407 413791 446367 446687 471647 454494 332190 
340382 12960 61664 316963 316962 495454 487390 200926 209183 
519902 503198 3806 20446 69790 184415 192606 391390 391392 
28446 28510 387234 395615 395419 403806 10402 108706 2203 
125083 1886 131413 349169 520084 503642 480489 488682 438886 
455526 487586 503973 308071 300135 292451 292452 135077 143270 
126873 126871 333282 341411 455968 464353 374240 110558 
METADATA
INFORMATION 0

RegionSize 1 80 int
11 41 7 141 30 5 31 13 38 
40 40 22 74 2 111 3 12 49 
12 21 16 59 12 78 23 509 15 
59 124 50 1 10 7 871 7 41 
13 653 22 6 23 4 428 6 99 
2 4638 464 317 558 49 75 165 97 
17243 7970 63309 101175 34381 51 4 52432 9 
148006 40 59178 5 7911 0 9759 7 3402 
8 17243 3 1960 7 4638 244 51 
METADATA
INFORMATION 0

RegionSpan 1 80 int
0 0 0 0 0 0 0 0 0 
0 0 0 0 0 0 0 0 0 
0 0 0 0 0 0 0 0 0 
0 0 0 0 0 0 0 0 0 
0 0 0 0 0 0 0 0 0 
0 0 0 0 0 0 0 0 0 
0 0 1 0 0 0 0 0 0 
1 0 0 0 0 0 0 0 0 
0 0 0 0 0 0 0 0 
METADATA
INFORMATION 0

