# vtk DataFile Version 4.2
vtk output
ASCII
DATASET UNSTRUCTURED_GRID
POINTS 54 float
0.46875 1.23438 0.8125 0.484375 1.21875 0.796875 0.46875 1.21875 0.765625 
0.46875 1.10938 0.546875 0.5 1.15625 0.65625 0.5 1.1875 0.6875 
0.5 1.20312 0.703125 0.46875 1.21875 0.890625 0.46875 1.23438 0.890625 
0.46875 1 0.71875 0.453125 1.03125 0.734375 0.453125 1.03125 0.015625 
0.484375 0.984375 0.0625 0.46875 0.90625 0.59375 0.46875 0.921875 0.578125 
0.46875 1.04688 0.984375 0.484375 1.03125 0.984375 0.484375 0.9375 0.53125 
0.46875 1 0.5625 0.484375 0.890625 0.921875 0.484375 0.921875 0.90625 
0.484375 0.96875 0.078125 0.46875 0.84375 0.96875 0.46875 0.859375 0.953125 
0.484375 0.90625 0.328125 0.46875 0.9375 0.375 0.484375 0.828125 0.015625 
0.484375 0.859375 0.03125 0.53125 0.53125 0.75 0.484375 0.578125 0.75 
0.421875 0.53125 0.71875 0.46875 0.578125 0.703125 0.421875 0.53125 0 
0.421875 0.53125 0.21875 0.53125 0.53125 0 0.53125 0.53125 0.296875 
0.46875 0.453125 0 0.53125 0.0625 0.375 0.21875 1.09375 0.734375 
0.328125 1.125 0.578125 0.359375 1.125 0.609375 0.59375 1.125 0.90625 
0.59375 1.14062 0.953125 0.59375 1.07812 0.578125 0.609375 1.09375 0.5625 
0.546875 1.23438 0.5625 0.5625 1.21875 0.5625 0.359375 1.1875 0.875 
0.34375 1.1875 0.875 0.625 1.0625 0.765625 0.625 1.0625 0.71875 
0.390625 0.890625 0.25 0.375 0.890625 0.25 0.46875 0.890625 0.234375 

METADATA
INFORMATION 2
NAME L2_NORM_RANGE LOCATION vtkDataArray
DATA 2 0.651958 1.60063 
NAME L2_NORM_FINITE_RANGE LOCATION vtkDataArray
DATA 2 0.651958 1.60063 

CELL_TYPES 0

POINT_DATA 54
SCALARS CriticalType int
LOOKUP_TABLE default
3 2 3 3 2 3 2 3 2 
3 2 3 2 3 2 3 2 3 
2 3 2 3 3 2 3 2 3 
2 3 2 3 2 3 2 3 2 
0 1 0 1 0 0 1 0 1 
0 1 0 1 0 1 0 1 2 

METADATA
INFORMATION 0

FIELD FieldData 5
NodeId 1 54 int
0 1 2 3 4 5 6 7 8 
9 10 11 12 13 14 15 16 17 
18 19 20 21 22 23 24 25 26 
27 28 29 30 31 32 33 34 35 
36 37 38 39 40 41 42 43 44 
45 46 47 48 49 50 51 52 53 

METADATA
INFORMATION 0

Scalar 1 54 float
0.666308 0.633343 0.660931 0.610581 0.548456 0.608016 0.559557 0.583091 0.561345 
0.562151 0.530054 0.548871 0.457996 0.513762 0.476594 0.511612 0.485176 0.509051 
0.478328 0.49628 0.458072 0.496132 0.444986 0.422596 0.442113 0.410999 0.408727 
0.373205 0.27308 0.190381 0.27292 0.190586 0.233918 0.184884 0.233609 0.188662 
0 0.0499122 0.000373391 0.0338383 0.00948549 0.0145064 0.0410728 0.0146797 0.0518192 
0.0151111 0.0380236 0.0206024 0.0489691 0.0236001 0.0486589 0.0408049 0.0671686 0.396682 

METADATA
INFORMATION 0

VertexId 1 54 int
431070 422815 406430 291294 348832 365344 373600 471966 472030 
380958 389277 12445 36831 315038 306910 520414 520351 282399 
299038 487007 478943 44959 511390 503262 175775 200478 11615 
19935 395426 395615 379035 371038 2203 116891 2210 157858 
1886 196898 389518 307733 324119 479782 504422 307558 299431 
300003 299940 463639 463638 405800 381224 134745 134744 126558 

METADATA
INFORMATION 0

RegionSize 1 54 int
8 190 5 56 176 31 51 0 12 
8 577 38 130 5 335 4 100 16 
42 9 688 9 8 255 11 386 25 
8726 450 126 548 12 94 26307 75 363 
6752 104405 82367 27211 4 5 115242 5 49168 
7 26841 2 59201 20 12354 12 26307 762 

METADATA
INFORMATION 0

RegionSpan 1 54 int
0 0 0 0 0 0 0 0 0 
0 0 0 0 0 0 0 0 0 
0 0 0 0 0 0 0 0 0 
0 0 0 0 0 0 0 0 0 
0 1 0 0 0 0 0 0 0 
0 0 0 1 0 0 0 0 0 

METADATA
INFORMATION 0

