# vtk DataFile Version 4.2
vtk output
ASCII
DATASET UNSTRUCTURED_GRID
POINTS 88 float
0.484375 1.20312 0.703125 0.5 1.26562 0.703125 0.484375 1.34375 0.78125 
0.484375 1.39062 0.765625 0.484375 1.42188 0.75 0.46875 1.39062 0.828125 
0.46875 1.34375 0.8125 0.421875 1.34375 0.625 0.484375 1.375 0.640625 
0.515625 1.40625 0.640625 0.453125 1.23438 0.59375 0.453125 1.29688 0.59375 
0.46875 1.17188 0.859375 0.453125 1.25 0.84375 0.484375 0.9375 0.8125 
0.484375 0.875 0.796875 0.484375 0.9375 0.84375 0.484375 1.01562 0.84375 
0.484375 0.9375 0.640625 0.484375 0.953125 0.65625 0.484375 1.09375 0.8125 
0.46875 1.14062 0.828125 0.484375 1.125 0.453125 0.5 1.01562 0.453125 
0.5 1 0.8125 0.484375 1 0.828125 0.484375 1.01562 0.96875 
0.46875 0.921875 0.953125 0.484375 0.9375 0.921875 0.484375 0.953125 0.90625 
0.46875 1.10938 0.046875 0.5 1.10938 0.03125 0.46875 1.04688 0.375 
0.484375 1 0.265625 0.484375 1.0625 0.625 0.484375 1.01562 0.625 
0.484375 0.921875 0.546875 0.46875 0.90625 0.5625 0.484375 0.9375 0.5 
0.484375 0.96875 0.515625 0.53125 1.375 0.875 0.515625 1.375 0.875 
0.46875 1.01562 0.09375 0.46875 1.0625 0.0625 0.515625 1.125 0.03125 
0.484375 1 0.453125 0.46875 0.90625 0 0.484375 0.984375 0.0625 
0.46875 0.953125 0.453125 0.46875 0.96875 0.46875 0.484375 0.96875 0.21875 
0.53125 0.53125 0.734375 0.484375 0.578125 0.78125 0.421875 0.53125 0.75 
0.46875 0.578125 0.796875 0.40625 1.15625 0.984375 0.421875 1.125 0.984375 
0.53125 0.53125 0.015625 0.53125 0.53125 0.296875 0.421875 0.53125 0 
0.421875 0.53125 0.234375 0.5 1.42188 0 0.46875 1.95312 0.234375 
0.46875 0.453125 0 0.515625 0.109375 0.03125 0.765625 1.23438 0.75 
0.28125 1.17188 0.765625 0.3125 1.15625 0.703125 0.453125 1.375 0.53125 
0.453125 1.375 0.515625 0.484375 1.5 0.59375 0.53125 1.5 0.59375 
0.5625 0.96875 0.265625 0.59375 0.96875 0.28125 0.421875 1.10938 0.453125 
0.390625 1.09375 0.546875 0.4375 1.1875 0.953125 0.40625 1.20312 0.921875 
0.578125 1.21875 0.8125 0.53125 1.20312 0.828125 0.59375 1.21875 0.6875 
0.59375 1.23438 0.671875 0.453125 1.34375 0.765625 0.453125 1.29688 0.75 
0.515625 1.39062 0.6875 0.46875 1.20312 0.546875 0.5 1.07812 0.390625 
0.484375 1 0.203125 
METADATA
INFORMATION 2
NAME L2_NORM_RANGE LOCATION vtkDataArray
DATA 2 0.528023 2.02222 
NAME L2_NORM_FINITE_RANGE LOCATION vtkDataArray
DATA 2 0.528023 2.02222 

CELL_TYPES 0

POINT_DATA 88
SCALARS CriticalType int
LOOKUP_TABLE default
3 2 3 2 3 3 2 3 2 
3 3 2 3 2 3 2 3 2 
3 2 3 2 3 2 3 2 3 
2 3 2 3 2 3 2 3 2 
3 2 3 2 3 2 3 2 3 
3 3 2 3 2 3 3 2 3 
2 3 2 3 2 3 2 3 2 
0 1 0 1 0 0 1 0 1 
0 1 0 1 0 1 0 1 0 
1 0 1 2 2 2 2 
METADATA
INFORMATION 0

FIELD FieldData 5
NodeId 1 88 int
0 1 2 3 4 5 6 7 8 
9 10 11 12 13 14 15 16 17 
18 19 20 21 22 23 24 25 26 
27 28 29 30 31 32 33 34 35 
36 37 38 39 40 41 42 43 44 
45 46 47 48 49 50 51 52 53 
54 55 56 57 58 59 60 61 62 
63 64 65 66 67 68 69 70 71 
72 73 74 75 76 77 78 79 80 
81 82 83 84 85 86 87 
METADATA
INFORMATION 0

Scalar 1 88 float
0.678149 0.59168 0.677022 0.643 0.665788 0.660766 0.634827 0.653412 0.575045 
0.613347 0.598404 0.543625 0.59204 0.540574 0.551267 0.500003 0.547636 0.515623 
0.546695 0.512376 0.541224 0.516655 0.532287 0.417718 0.531993 0.505559 0.525689 
0.466614 0.519814 0.494563 0.513718 0.447574 0.511552 0.411089 0.509539 0.486981 
0.501077 0.476897 0.500807 0.446109 0.497411 0.470032 0.490154 0.416865 0.480781 
0.45623 0.452397 0.411283 0.447804 0.407747 0.442049 0.273208 0.189283 0.271788 
0.189792 0.259495 0.234553 0.236232 0.18846 0.233183 0.18538 0.0804566 0.0494854 
0 0.0498939 0.000729868 0.0409869 0.0119434 0.0253768 0.0589713 0.0380422 0.0620066 
0.0580184 0.0877652 0.073969 0.116749 0.0780635 0.12971 0.139035 0.209372 0.142774 
0.171355 0.387264 0.416794 0.562862 0.411772 0.406173 0.405369 
METADATA
INFORMATION 0

VertexId 1 88 int
373599 373856 415135 407135 399071 439902 431518 333211 341535 
341665 316381 316637 455390 447517 429855 421407 446239 446559 
339743 347999 430495 438878 242207 241760 430112 438303 512095 
503518 487199 479071 29150 20960 200926 143391 332063 331871 
290527 298654 266015 274335 464418 464417 53342 37150 21025 
241695 3742 36831 241502 249758 118687 387234 411999 395419 
420190 520858 520731 10402 157858 2203 125083 5856 130910 
1886 16865 398321 406226 373396 284189 275997 317471 317474 
143268 151462 242139 291225 504604 488282 431013 439138 365478 
357350 406941 398557 366177 291678 209248 110623 
METADATA
INFORMATION 0

RegionSize 1 88 int
11 167 17 19 7 9 159 47 20 
10 18 35 26 328 9 107 9 57 
12 118 8 12 95 16 3 84 14 
546 7 154 19 47 69 9 4 210 
11 179 8 785 4 77 54 15 10 
4 29 21 11 50 10 452 87 572 
46 7 1776 72 336 95 1689 5036 137524 
6667 115409 179333 137524 8 0 6190 16 18914 
13 8164 19 2383 9 5916 29 1776 3 
1689 9 785 169 131 25 10358 
METADATA
INFORMATION 0

RegionSpan 1 88 int
0 0 0 0 0 0 0 0 0 
0 0 0 0 0 0 0 0 0 
0 0 0 0 0 0 0 0 0 
0 0 0 0 0 0 0 0 0 
0 0 0 0 0 0 0 0 0 
0 0 0 0 0 0 0 0 0 
0 0 0 0 0 0 0 0 0 
0 1 0 0 0 0 0 0 0 
0 0 0 0 0 0 0 0 0 
0 0 0 0 0 0 0 
METADATA
INFORMATION 0

