# vtk DataFile Version 4.2
vtk output
ASCII
DATASET UNSTRUCTURED_GRID
POINTS 76 float
0.46875 1.26562 0.796875 0.46875 1.25 0.75 0.46875 1.375 0.671875 
0.46875 1.46875 0.75 0.46875 1.45312 0.734375 0.484375 1.1875 0.671875 
0.46875 1.21875 0.6875 0.46875 1.09375 0.734375 0.484375 1.07812 0.75 
0.515625 1.26562 0.859375 0.5 1.25 0.84375 0.53125 1.25 0.578125 
0.5 1.07812 0.578125 0.484375 1 0.5625 0.5 0.953125 0.609375 
0.453125 1.17188 0.953125 0.5 1.125 0.90625 0.453125 1.07812 0.453125 
0.484375 1.125 0.484375 0.484375 0.90625 0.625 0.484375 0.96875 0.640625 
0.5 1.09375 0.03125 0.5 1.0625 0.0625 0.484375 0.921875 0.921875 
0.484375 0.859375 0.90625 0.46875 1.29688 0.90625 0.5 1.28125 0.90625 
0.46875 1.03125 0.078125 0.484375 1 0.109375 0.484375 1.03125 0.109375 
0.46875 1 0.515625 0.46875 0.953125 0.515625 0.4375 1 0.953125 
0.4375 1 0.9375 0.484375 0.90625 0 0.484375 0.96875 0.015625 
0.484375 1.01562 0.984375 0.5 0.984375 0.984375 0.46875 0.96875 0.3125 
0.46875 0.9375 0.25 0.453125 1.125 0.078125 0.46875 1.10938 0.078125 
0.421875 0.53125 0.71875 0.46875 0.578125 0.703125 0.53125 0.53125 0.765625 
0.53125 0.53125 0.3125 0.53125 0.53125 0.015625 0.421875 0.53125 0 
0.421875 0.53125 0.21875 0.46875 0.453125 0 0.71875 0.125 0.5 
0.734375 1.17188 0.640625 0.328125 1.01562 0.984375 0.609375 1.1875 0.8125 
0.65625 1.17188 0.765625 0.390625 1.01562 0.96875 0.390625 0.96875 0.46875 
0.359375 0.96875 0.453125 0.625 1.14062 0.6875 0.609375 1.1875 0.640625 
0.3125 1.10938 0.765625 0.296875 1.10938 0.75 0.5625 0.9375 0.25 
0.59375 0.921875 0.234375 0.5 1.29688 0.953125 0.453125 1.29688 0.96875 
0.390625 0.953125 0.265625 0.375 0.953125 0.1875 0.421875 1.15625 0.546875 
0.40625 1.17188 0.578125 0.390625 1.20312 0.734375 0.390625 1.1875 0.703125 
0.421875 1.26562 0.84375 0.421875 1.25 0.859375 0.484375 0.578125 0.71875 
0.46875 0.96875 0.34375 
METADATA
INFORMATION 2
NAME L2_NORM_RANGE LOCATION vtkDataArray
DATA 2 0.651958 1.71448 
NAME L2_NORM_FINITE_RANGE LOCATION vtkDataArray
DATA 2 0.651958 1.71448 

CELL_TYPES 0

POINT_DATA 76
SCALARS CriticalType int
LOOKUP_TABLE default
3 2 3 3 2 3 2 3 2 
3 2 3 2 3 2 3 2 3 
2 3 2 3 2 3 2 3 2 
3 3 2 3 2 3 2 3 2 
3 2 3 2 3 2 3 2 3 
2 3 3 2 0 1 0 1 0 
1 0 0 1 0 1 0 1 0 
1 0 1 0 1 0 1 0 1 
0 1 2 2 
METADATA
INFORMATION 0

FIELD FieldData 5
NodeId 1 76 int
0 1 2 3 4 5 6 7 8 
9 10 11 12 13 14 15 16 17 
18 19 20 21 22 23 24 25 26 
27 28 29 30 31 32 33 34 35 
36 37 38 39 40 41 42 43 44 
45 46 47 48 49 50 51 52 53 
54 55 56 57 58 59 60 61 62 
63 64 65 66 67 68 69 70 71 
72 73 74 75 
METADATA
INFORMATION 0

Scalar 1 76 float
0.695865 0.613687 0.676252 0.630257 0.576432 0.628311 0.606601 0.611409 0.586458 
0.56406 0.529386 0.553745 0.462017 0.547512 0.483022 0.532158 0.465379 0.529479 
0.416777 0.524821 0.501328 0.523037 0.443837 0.518108 0.481766 0.503976 0.47836 
0.493502 0.468243 0.439207 0.466174 0.434439 0.453713 0.414487 0.451903 0.415505 
0.442799 0.409814 0.436661 0.409792 0.39726 0.37204 0.272402 0.188975 0.272198 
0.189818 0.236986 0.233933 0.184557 0 0.0499041 0.00059501 0.0319152 0.00526758 
0.0326827 0.0087695 0.0111801 0.0337688 0.012283 0.03896 0.0124873 0.037326 0.0133973 
0.0806426 0.0146895 0.0438859 0.0378678 0.0766389 0.131612 0.163924 0.203849 0.242861 
0.238103 0.269855 0.187596 0.404239 
METADATA
INFORMATION 0

VertexId 1 76 int
423006 398366 357918 399262 391006 357151 365470 389534 397663 
455777 447520 308258 307552 299039 323424 504541 479776 242013 
258591 331423 339871 20896 37152 487135 478687 480478 480416 
45214 61471 61599 274462 274270 503836 495644 3743 12191 
520287 520160 167838 134942 45597 45534 379035 371038 403618 
166050 10402 2203 116891 1886 262702 340719 520277 430887 
406250 512089 249753 241559 365160 340775 405972 397779 134948 
126694 505056 513245 143193 102232 291483 307930 389977 373529 
447579 455707 379231 184222 
METADATA
INFORMATION 0

RegionSize 1 76 int
43 48 62 7 376 4 116 5 58 
11 347 114 664 17 14 40 64 104 
71 7 259 58 4 12 64 8 224 
11 5 69 7 491 4 143 17 24 
6 180 12 35 3 5800 576 105 450 
26 69 93 2491 6537 141117 89991 4597 43 
6619 36 15 25612 14 59867 5 13629 14 
17486 3 136465 13 2059 13 2491 11 1616 
2 5800 343 1292 
METADATA
INFORMATION 0

RegionSpan 1 76 int
0 0 0 0 0 0 0 0 0 
0 0 0 0 0 0 0 0 0 
0 0 0 0 0 0 0 0 0 
0 0 0 0 0 0 0 0 0 
0 0 0 0 0 0 0 0 0 
0 0 0 0 0 0 0 0 0 
0 0 0 0 0 0 0 0 0 
0 0 1 0 0 0 0 0 0 
0 0 0 0 
METADATA
INFORMATION 0

