# vtk DataFile Version 4.2
vtk output
ASCII
DATASET UNSTRUCTURED_GRID
POINTS 54 float
0.46875 1.10938 0.640625 0.46875 1.14062 0.671875 0.46875 1.0625 0.703125 
0.484375 1.10938 0.796875 0.453125 1.10938 0.84375 0.46875 1.07812 0.875 
0.46875 1.29688 0.71875 0.46875 1.26562 0.71875 0.46875 1.01562 0.484375 
0.46875 1.03125 0.5 0.484375 1 0 0.484375 0.859375 0.21875 
0.484375 0.875 0.921875 0.484375 0.84375 0.890625 0.46875 0.890625 0.96875 
0.484375 0.921875 0.9375 0.484375 0.828125 0.015625 0.484375 0.90625 0.015625 
0.53125 0.53125 0.75 0.484375 0.578125 0.71875 0.421875 0.53125 0.75 
0.46875 0.578125 0.734375 0.421875 0.53125 0 0.421875 0.53125 0.265625 
0.53125 0.53125 0 0.53125 0.53125 0.265625 0.46875 0.453125 0 
0.421875 0.0625 0.203125 0.234375 1.04688 0.75 0.34375 1.125 0.625 
0.703125 1.0625 0.890625 0.65625 1.04688 0.734375 0.640625 1.04688 0.765625 
0.578125 1.07812 0.5625 0.59375 1.07812 0.609375 0.40625 0.859375 0.234375 
0.390625 0.859375 0.25 0.59375 1.10938 0.609375 0.609375 1.09375 0.609375 
0.359375 1.125 0.609375 0.34375 0.984375 0.765625 0.34375 1.01562 0.765625 
0.59375 1.14062 0.84375 0.609375 1.07812 0.8125 0.375 1.14062 0.59375 
0.375 1.125 0.59375 0.546875 0.859375 0.25 0.5625 0.875 0.1875 
0.59375 1.04688 0.859375 0.59375 1.07812 0.859375 0.609375 1.0625 0.890625 
0.59375 1.09375 0.9375 0.515625 1.07812 0.75 0.484375 1.21875 0.203125 

METADATA
INFORMATION 2
NAME L2_NORM_RANGE LOCATION vtkDataArray
DATA 2 0.472382 1.55812 
NAME L2_NORM_FINITE_RANGE LOCATION vtkDataArray
DATA 2 0.472382 1.55812 

CELL_TYPES 0

POINT_DATA 54
SCALARS CriticalType int
LOOKUP_TABLE default
3 2 3 3 2 3 3 2 3 
2 3 2 3 2 3 2 3 2 
3 2 3 2 3 2 3 2 0 
1 0 1 0 1 0 0 1 0 
1 0 1 0 0 1 0 1 0 
1 0 1 0 1 0 1 2 1 

METADATA
INFORMATION 0

FIELD FieldData 5
NodeId 1 54 int
0 1 2 3 4 5 6 7 8 
9 10 11 12 13 14 15 16 17 
18 19 20 21 22 23 24 25 26 
27 28 29 30 31 32 33 34 35 
36 37 38 39 40 41 42 43 44 
45 46 47 48 49 50 51 52 53 

METADATA
INFORMATION 0

Scalar 1 54 float
0.649942 0.60882 0.645844 0.642225 0.556686 0.614992 0.565034 0.54063 0.558726 
0.531578 0.517562 0.396614 0.491821 0.456488 0.465352 0.440401 0.418199 0.395532 
0.272485 0.190064 0.27222 0.189792 0.234119 0.187263 0.233136 0.188809 0 
0.0498957 0.000811391 0.0386187 0.000991724 0.0301001 0.00706274 0.0106644 0.0546761 0.0121104 
0.0590384 0.0124012 0.0424283 0.0134314 0.0176998 0.0419076 0.0181465 0.0430304 0.0217662 
0.0450495 0.0227576 0.0686283 0.0259069 0.0512197 0.0261337 0.0483547 0.543364 0.0416217 

METADATA
INFORMATION 0

VertexId 1 54 int
340446 356958 373022 422367 446941 463198 382174 382046 258142 
266398 4127 118239 486943 470431 511582 495327 11615 11935 
395426 379231 395419 387422 2203 141467 2210 141474 1886 
106779 397519 332310 471341 389354 405737 299365 323942 126426 
134617 324070 324007 324119 405462 405590 447078 430439 315992 
315928 134627 101924 454886 455014 471335 496038 397665 111519 

METADATA
INFORMATION 0

RegionSize 1 54 int
26 175 30 72 41 42 3 73 7 
947 146 21 9 270 10 839 13 8375 
455 15 553 82 88 23738 74 133 6431 
103126 49854 13681 26866 40465 7 8 14159 8 
12808 10 7219 1 10 6011 9 24963 0 
55622 11 23738 2 35596 9 86832 25 4264 

METADATA
INFORMATION 0

RegionSpan 1 54 int
0 0 0 0 0 0 0 0 0 
0 0 0 0 0 0 0 0 0 
0 0 0 0 0 0 0 0 0 
1 0 0 0 0 0 0 0 0 
0 0 0 0 0 0 0 0 0 
0 0 0 0 0 0 1 0 0 

METADATA
INFORMATION 0

