# vtk DataFile Version 4.2
vtk output
ASCII
DATASET UNSTRUCTURED_GRID
POINTS 42 float
0.46875 1.17188 0.703125 0.46875 1.15625 0.78125 0.484375 1.125 0.8125 
0.5 1.09375 0.890625 0.484375 1.07812 0.875 0.5 1.09375 0.546875 
0.46875 1.09375 0.59375 0.46875 1.01562 0 0.46875 0.859375 0.234375 
0.484375 0.84375 0.5625 0.484375 0.875 0.578125 0.484375 0.9375 0.40625 
0.46875 0.953125 0.421875 0.421875 1.07812 0.515625 0.4375 1.07812 0.515625 
0.53125 0.53125 0.734375 0.53125 0.53125 0.234375 0.421875 0.53125 0.6875 
0.453125 0.578125 0.6875 0.421875 0.53125 0 0.421875 0.53125 0.21875 
0.53125 0.53125 0 0.46875 0.453125 0 0.578125 0.140625 0.1875 
0.25 1.0625 0.875 0.46875 1.21875 0.25 0.640625 0.875 0.25 
0.609375 1.0625 0.796875 0.625 1.03125 0.75 0.625 1.01562 0.734375 
0.609375 1.03125 0.6875 0.359375 1.01562 0.546875 0.359375 1.03125 0.546875 
0.546875 0.859375 0.234375 0.578125 0.859375 0.21875 0.40625 0.859375 0.25 
0.390625 0.875 0.1875 0.59375 1.10938 0.59375 0.59375 1.09375 0.59375 
0.375 1.04688 0.921875 0.34375 1.04688 0.921875 0.484375 0.578125 0.71875 

METADATA
INFORMATION 2
NAME L2_NORM_RANGE LOCATION vtkDataArray
DATA 2 0.623827 1.4965 
NAME L2_NORM_FINITE_RANGE LOCATION vtkDataArray
DATA 2 0.623827 1.4965 

CELL_TYPES 0

POINT_DATA 42
SCALARS CriticalType int
LOOKUP_TABLE default
3 2 3 3 2 3 2 3 2 
3 2 3 2 3 2 3 2 3 
2 3 2 3 0 1 0 1 0 
1 0 1 0 0 1 0 1 0 
1 0 1 0 1 2 
METADATA
INFORMATION 0

FIELD FieldData 5
NodeId 1 42 int
0 1 2 3 4 5 6 7 8 
9 10 11 12 13 14 15 16 17 
18 19 20 21 22 23 24 25 26 
27 28 29 30 31 32 33 34 35 
36 37 38 39 40 41 
METADATA
INFORMATION 0

Scalar 1 42 float
0.658231 0.591155 0.619375 0.576359 0.538369 0.570643 0.513227 0.537214 0.390242 
0.489014 0.457676 0.476155 0.452956 0.410838 0.387205 0.272401 0.190476 0.272097 
0.188077 0.233917 0.184657 0.233663 0 0.0499021 0.00140874 0.0419321 0.00183694 
0.0351647 0.00894454 0.0335501 0.0100128 0.0138405 0.0460761 0.0154234 0.0605116 0.0166064 
0.067778 0.017414 0.0404757 0.0329491 0.0574656 0.187954 
METADATA
INFORMATION 0

VertexId 1 42 int
373470 414366 430623 471456 463199 291232 315806 4190 126430 
298399 306719 216863 225118 274779 274780 387234 125090 362651 
362845 2203 116891 2210 1886 98917 463120 136094 134697 
422183 397480 389224 364711 290903 290967 126435 118245 134618 
101913 315878 315814 487640 487638 379231 
METADATA
INFORMATION 0

RegionSize 1 42 int
103 234 19 28 223 40 726 192 80 
4 65 3 1220 0 8344 450 27 587 
8 94 24142 64 6188 148782 64060 52190 42561 
19647 16 1 17 5 129762 6 8876 11 
24142 2 8230 5 6942 292 
METADATA
INFORMATION 0

RegionSpan 1 42 int
0 0 0 0 0 0 0 0 0 
0 0 0 0 0 0 0 0 0 
0 0 0 0 0 1 0 0 0 
0 0 0 0 0 0 0 0 0 
0 0 0 0 0 0 
METADATA
INFORMATION 0

