# vtk DataFile Version 4.2
vtk output
ASCII
DATASET UNSTRUCTURED_GRID
POINTS 54 float
0.46875 1.17188 0.8125 0.46875 1.10938 0.796875 0.46875 1.10938 0.765625 
0.453125 1.125 0.71875 0.453125 1.07812 0.75 0.484375 1.10938 0.671875 
0.5 1.125 0.6875 0.46875 1.0625 0.546875 0.484375 1.14062 0.640625 
0.5 1.10938 0.921875 0.484375 1.10938 0.90625 0.46875 0.90625 0.796875 
0.46875 0.953125 0.796875 0.453125 1.01562 0 0.46875 0.96875 0.03125 
0.484375 0.921875 0.890625 0.484375 0.953125 0.875 0.46875 1.01562 0.984375 
0.484375 1.03125 0.96875 0.46875 0.859375 0.59375 0.46875 0.890625 0.578125 
0.484375 0.9375 0.078125 0.484375 0.84375 0.921875 0.484375 0.875 0.921875 
0.484375 0.921875 0.390625 0.46875 0.9375 0.40625 0.46875 0.8125 0.96875 
0.484375 0.78125 0.953125 0.53125 0.53125 0.75 0.484375 0.578125 0.75 
0.421875 0.53125 0.71875 0.46875 0.578125 0.703125 0.421875 0.53125 0 
0.421875 0.53125 0.21875 0.53125 0.53125 0 0.53125 0.53125 0.296875 
0.46875 0.453125 0 0.4375 0.03125 0.5625 0.234375 1.0625 0.671875 
0.421875 1.17188 0.96875 0.703125 1.0625 0.59375 0.609375 1.01562 0.78125 
0.609375 1.03125 0.734375 0.375 1.10938 0.546875 0.359375 1.09375 0.546875 
0.40625 0.859375 0.234375 0.375 0.859375 0.234375 0.609375 1.09375 0.859375 
0.625 1.07812 0.859375 0.546875 0.859375 0.25 0.5625 0.859375 0.203125 
0.578125 1.03125 0.59375 0.609375 1.04688 0.59375 0.484375 0.875 0.234375 

METADATA
INFORMATION 2
NAME L2_NORM_RANGE LOCATION vtkDataArray
DATA 2 0.651958 1.57789 
NAME L2_NORM_FINITE_RANGE LOCATION vtkDataArray
DATA 2 0.651958 1.57789 

CELL_TYPES 0

POINT_DATA 54
SCALARS CriticalType int
LOOKUP_TABLE default
3 2 3 3 2 3 2 3 2 
3 2 3 2 3 2 3 2 3 
2 3 2 3 3 2 3 2 3 
2 3 2 3 2 3 2 3 2 
0 1 0 1 0 0 1 0 1 
0 1 0 1 0 1 0 1 2 

METADATA
INFORMATION 0

FIELD FieldData 5
NodeId 1 54 int
0 1 2 3 4 5 6 7 8 
9 10 11 12 13 14 15 16 17 
18 19 20 21 22 23 24 25 26 
27 28 29 30 31 32 33 34 35 
36 37 38 39 40 41 42 43 44 
45 46 47 48 49 50 51 52 53 

METADATA
INFORMATION 0

Scalar 1 54 float
0.664651 0.603165 0.635937 0.621322 0.59624 0.610979 0.556097 0.59182 0.539926 
0.556217 0.52883 0.551902 0.529578 0.532115 0.45083 0.519315 0.495623 0.511088 
0.478296 0.49472 0.465326 0.492284 0.478555 0.442132 0.471385 0.448459 0.43495 
0.403387 0.273209 0.189652 0.273091 0.190409 0.233991 0.185212 0.233504 0.188596 
0 0.0499204 0.000958755 0.0284577 0.00133766 0.00809475 0.0439603 0.00914023 0.0382974 
0.0143614 0.0612302 0.0185146 0.0400979 0.0260015 0.0739039 0.0332663 0.0592564 0.389492 

METADATA
INFORMATION 0

VertexId 1 54 int
430814 422366 405982 381469 397661 356831 365088 291102 340575 
487904 479711 421534 421726 4189 20382 470751 462687 520286 
512159 314846 306782 44831 486815 486943 208607 216862 511262 
502943 395426 395615 379035 371038 2203 116891 2210 157858 
1886 295068 356623 512731 315693 413799 389287 291288 291223 
126426 126424 455079 455016 134627 110052 315557 315623 126495 

METADATA
INFORMATION 0

RegionSize 1 54 int
27 12 8 12 123 25 87 56 83 
8 331 4 10 35 129 3 247 12 
213 6 262 13 7 745 3 105 18 
321 456 65 554 52 95 19903 75 274 
7073 149654 19525 61866 20503 20 160217 0 13586 
14 11852 10 43490 8 19903 12 3739 8286 

METADATA
INFORMATION 0

RegionSpan 1 54 int
0 0 0 0 0 0 0 0 0 
0 0 0 0 0 0 0 0 0 
0 0 0 0 0 0 0 0 0 
0 0 0 0 0 0 0 0 0 
0 1 0 0 0 0 1 0 0 
0 0 0 0 0 0 0 0 0 

METADATA
INFORMATION 0

