# vtk DataFile Version 4.2
vtk output
ASCII
DATASET UNSTRUCTURED_GRID
POINTS 44 float
0.46875 1.10938 0.828125 0.46875 1.125 0.8125 0.484375 1.17188 0.75 
0.484375 1.10938 0.734375 0.484375 1.125 0.71875 0.46875 1.09375 0.625 
0.46875 1.09375 0.65625 0.484375 1.09375 0.921875 0.484375 1.0625 0.921875 
0.46875 1.0625 0.5625 0.46875 1.09375 0.59375 0.484375 1.01562 0.953125 
0.484375 0.90625 0.609375 0.484375 0.953125 0.625 0.46875 0.96875 0.46875 
0.46875 0.984375 0.484375 0.46875 0.96875 0.015625 0.46875 0.90625 0.09375 
0.46875 0.890625 0.109375 0.421875 0.53125 0.78125 0.46875 0.578125 0.796875 
0.53125 0.53125 0.734375 0.484375 0.578125 0.8125 0.421875 0.53125 0 
0.421875 0.53125 0.265625 0.53125 0.53125 0 0.53125 0.53125 0.28125 
0.46875 0.453125 0 0.75 0.09375 0.4375 0.6875 1.04688 0.890625 
0.65625 1.03125 0.8125 0.234375 1.03125 0.734375 0.4375 1.14062 0.953125 
0.609375 1.03125 0.8125 0.625 1.01562 0.71875 0.640625 1.01562 0.78125 
0.546875 0.84375 0.234375 0.5625 0.84375 0.234375 0.40625 0.84375 0.25 
0.390625 0.859375 0.203125 0.515625 1.01562 0 0.515625 1 0 
0.484375 1.0625 0.890625 0.46875 0.84375 0.265625 
METADATA
INFORMATION 2
NAME L2_NORM_RANGE LOCATION vtkDataArray
DATA 2 0.651958 1.54948 
NAME L2_NORM_FINITE_RANGE LOCATION vtkDataArray
DATA 2 0.651958 1.54948 

CELL_TYPES 0

POINT_DATA 44
SCALARS CriticalType int
LOOKUP_TABLE default
3 2 3 2 3 3 2 3 2 
3 2 3 3 2 3 2 3 2 
3 3 2 3 2 3 2 3 2 
0 1 0 1 0 1 0 0 1 
0 1 0 1 0 1 2 2 
METADATA
INFORMATION 0

FIELD FieldData 5
NodeId 1 44 int
0 1 2 3 4 5 6 7 8 
9 10 11 12 13 14 15 16 17 
18 19 20 21 22 23 24 25 26 
27 28 29 30 31 32 33 34 35 
36 37 38 39 40 41 42 43 
METADATA
INFORMATION 0

Scalar 1 44 float
0.652535 0.599709 0.650912 0.608537 0.642993 0.601051 0.557951 0.573598 0.540379 
0.565268 0.518334 0.563554 0.533581 0.504143 0.524514 0.498613 0.486707 0.423478 
0.447335 0.272381 0.1864 0.272161 0.188648 0.233564 0.184204 0.232942 0.188356 
0 0.049903 0.000942931 0.0290934 0.001175 0.0421311 0.00304651 0.0065612 0.036721 
0.00889274 0.0627621 0.0252758 0.0686494 0.296804 0.323687 0.54016 0.387851 
METADATA
INFORMATION 0

VertexId 1 44 int
438750 430622 398047 389599 381471 332190 348574 487839 487711 
299294 315806 503903 323231 331615 249758 258014 12190 52894 
61022 411803 420190 387234 428383 2203 141467 2210 149666 
1886 229808 471276 430250 389263 504412 430247 381032 413801 
126371 126372 134554 110041 4193 4129 471327 142750 
METADATA
INFORMATION 0

RegionSize 1 44 int
18 106 39 18 26 23 106 15 0 
31 137 6 4 56 5 1852 55 100 
4 605 197 468 16 107 22365 74 130 
5992 163575 19150 26600 62565 182477 12 44 23390 
5 5852 16 22365 3 2071 143 2071 
METADATA
INFORMATION 0

RegionSpan 1 44 int
0 0 0 0 0 0 0 0 0 
0 0 0 0 0 0 0 0 0 
0 0 0 0 0 0 0 0 0 
0 0 0 0 0 1 0 0 0 
0 0 0 0 0 0 0 0 
METADATA
INFORMATION 0

