# vtk DataFile Version 4.2
vtk output
ASCII
DATASET UNSTRUCTURED_GRID
POINTS 52 float
0.484375 1.14062 0.765625 0.484375 1.125 0.734375 0.46875 1.14062 0.828125 
0.46875 1.17188 0.796875 0.484375 1.15625 0.71875 0.484375 1.09375 0.640625 
0.46875 1.125 0.65625 0.5 1.14062 0.90625 0.484375 1.09375 0.890625 
0.46875 1.07812 0.5625 0.46875 1.125 0.59375 0.484375 0.9375 0.609375 
0.484375 0.96875 0.609375 0.484375 0.953125 0.875 0.46875 0.953125 0.859375 
0.46875 1 0.46875 0.46875 1.01562 0.484375 0.46875 0.84375 0.65625 
0.46875 0.875 0.65625 0.46875 0.96875 0.03125 0.453125 0.921875 0 
0.46875 0.90625 0 0.484375 0.84375 0 0.46875 0.875 0 
0.53125 0.53125 0.734375 0.484375 0.578125 0.8125 0.421875 0.53125 0.78125 
0.46875 0.578125 0.796875 0.421875 0.53125 0 0.421875 0.53125 0.265625 
0.53125 0.53125 0 0.53125 0.53125 0.28125 0.46875 0.453125 0 
0.34375 0.03125 0.375 0.71875 1.04688 0.734375 0.46875 1.17188 0.984375 
0.265625 1.07812 0.578125 0.359375 1.15625 0.921875 0.4375 1.17188 0.953125 
0.3125 1.04688 0.734375 0.296875 1.03125 0.765625 0.625 1.03125 0.71875 
0.640625 1.04688 0.703125 0.40625 0.859375 0.25 0.390625 0.875 0.203125 
0.578125 1.07812 0.546875 0.59375 1.07812 0.546875 0.546875 0.859375 0.234375 
0.5625 0.859375 0.234375 0.515625 1.03125 0 0.53125 1.0625 0 
0.46875 0.859375 0.265625 
METADATA
INFORMATION 2
NAME L2_NORM_RANGE LOCATION vtkDataArray
DATA 2 0.509672 1.60063 
NAME L2_NORM_FINITE_RANGE LOCATION vtkDataArray
DATA 2 0.509672 1.60063 

CELL_TYPES 0

POINT_DATA 52
SCALARS CriticalType int
LOOKUP_TABLE default
3 2 3 2 3 3 2 3 2 
3 2 3 2 3 2 3 2 3 
2 3 2 3 3 2 3 2 3 
2 3 2 3 2 0 1 0 1 
0 1 0 0 1 0 1 0 1 
0 1 0 1 0 1 2 
METADATA
INFORMATION 0

FIELD FieldData 5
NodeId 1 52 int
0 1 2 3 4 5 6 7 8 
9 10 11 12 13 14 15 16 17 
18 19 20 21 22 23 24 25 26 
27 28 29 30 31 32 33 34 35 
36 37 38 39 40 41 42 43 44 
45 46 47 48 49 50 51 
METADATA
INFORMATION 0

Scalar 1 52 float
0.65677 0.624233 0.655756 0.598443 0.655273 0.600385 0.56704 0.573074 0.54302 
0.562005 0.520062 0.542285 0.508553 0.540846 0.507377 0.530801 0.505944 0.497857 
0.470407 0.482161 0.41859 0.440233 0.431107 0.403801 0.272181 0.188781 0.272015 
0.1865 0.233674 0.184127 0.233293 0.187501 0 0.0499102 0.000836629 0.0272419 
0.00108571 0.0286385 0.00383607 0.00794824 0.0311249 0.00801318 0.0356935 0.0143435 0.0696386 
0.0159987 0.044098 0.0181091 0.0626255 0.277267 0.307801 0.391873 
METADATA
INFORMATION 0

VertexId 1 52 int
406111 389663 438878 422622 381599 340383 348702 479840 471455 
299358 315934 323359 323487 462687 454494 249886 258142 347550 
347678 20382 3805 3742 3487 3614 387234 428383 411803 
420190 2203 141467 2210 149666 1886 196758 389358 520926 
307537 488087 504540 389332 405651 381096 372969 134618 110105 
291173 291174 126435 126436 4257 4386 142814 
METADATA
INFORMATION 0

RegionSize 1 52 int
30 40 26 85 24 21 121 16 185 
30 122 4 13 4 12 4 472 5 
1503 73 24 2 9 46 468 89 599 
228 107 22193 78 59 6213 156889 15785 5468 
19832 16561 7 19 27482 27 76656 15 22193 
0 157162 5 7014 3 2945 2945 
METADATA
INFORMATION 0

RegionSpan 1 52 int
0 0 0 0 0 0 0 0 0 
0 0 0 0 0 0 0 0 0 
0 0 0 0 0 0 0 0 0 
0 0 0 0 0 0 0 0 0 
0 0 0 0 0 0 0 0 0 
0 1 0 0 0 0 0 
METADATA
INFORMATION 0

