# vtk DataFile Version 4.2
vtk output
ASCII
DATASET UNSTRUCTURED_GRID
POINTS 46 float
0.46875 1.20312 0.671875 0.46875 1.1875 0.703125 0.46875 1.21875 0.65625 
0.484375 1.07812 0.78125 0.484375 1.23438 0.78125 0.453125 1.20312 0.84375 
0.484375 1.15625 0.890625 0.46875 1.0625 0.796875 0.515625 1.23438 0.75 
0.515625 1.21875 0.734375 0.5 1.09375 0.53125 0.46875 1.07812 0.484375 
0.46875 1.35938 0.734375 0.453125 1.39062 0.734375 0.484375 0.984375 0.078125 
0.46875 1.03125 0.03125 0.484375 0.96875 0.09375 0.5 0.953125 0.546875 
0.5 0.96875 0.546875 0.46875 0.90625 0 0.46875 0.859375 0 
0.46875 0.578125 0.734375 0.421875 0.53125 0.75 0.53125 0.53125 0.265625 
0.53125 0.53125 0.75 0.421875 0.53125 0.234375 0.421875 0.53125 0 
0.53125 0.53125 0 0.46875 0.453125 0 0.28125 0.03125 0.0625 
0.25 1.14062 0.90625 0.453125 1.21875 0.484375 0.71875 1.125 0.609375 
0.59375 1.14062 0.875 0.625 1.125 0.90625 0.578125 1.15625 0.546875 
0.578125 1.15625 0.515625 0.546875 1.20312 0.96875 0.5 1.21875 0.96875 
0.5625 0.90625 0.21875 0.578125 0.90625 0.1875 0.390625 0.90625 0.25 
0.375 0.90625 0.25 0.484375 1.26562 0.734375 0.484375 0.578125 0.71875 
0.46875 0.921875 0.265625 
METADATA
INFORMATION 2
NAME L2_NORM_RANGE LOCATION vtkDataArray
DATA 2 0.289801 1.63861 
NAME L2_NORM_FINITE_RANGE LOCATION vtkDataArray
DATA 2 0.289801 1.63861 

CELLS 45 135
2 0 1 
2 0 2 
2 3 4 
2 5 6 
2 3 7 
2 8 9 
2 10 11 
2 12 13 
2 14 15 
2 14 16 
2 17 18 
2 19 20 
2 21 22 
2 23 24 
2 25 26 
2 23 27 
2 28 29 
2 30 31 
2 32 31 
2 33 34 
2 35 36 
2 37 38 
2 39 40 
2 41 42 
2 43 0 
2 5 3 
2 19 14 
2 44 23 
2 31 34 
2 8 5 
2 45 19 
2 34 36 
2 43 8 
2 36 29 
2 10 43 
2 29 38 
2 12 10 
2 38 42 
2 17 12 
2 42 40 
2 45 17 
2 40 25 
2 44 45 
2 25 21 
2 21 44 

CELL_TYPES 45
3
3
3
3
3
3
3
3
3
3
3
3
3
3
3
3
3
3
3
3
3
3
3
3
3
3
3
3
3
3
3
3
3
3
3
3
3
3
3
3
3
3
3
3
3

CELL_DATA 45
SCALARS SegmentationId int
LOOKUP_TABLE default
44 43 42 41 40 39 38 37 36 
35 34 33 32 31 30 29 0 1 
2 3 4 5 6 7 28 27 22 
18 9 26 20 10 25 11 17 8 
24 12 23 14 21 13 16 19 15 

METADATA
INFORMATION 0

FIELD FieldData 4
upNodeId 1 45 int
0 2 3 5 7 8 10 12 14 
16 17 19 21 23 25 27 29 31 
31 34 36 38 40 42 1 4 15 
24 34 6 20 36 9 29 43 38 
11 42 13 40 18 26 45 22 44 

METADATA
INFORMATION 0

downNodeId 1 45 int
1 1 4 6 4 9 11 13 15 
15 18 20 22 24 26 24 28 30 
32 33 35 37 39 41 43 6 20 
44 31 9 45 34 43 36 11 29 
13 38 18 42 45 40 44 26 22 

METADATA
INFORMATION 0

RegionSize 1 45 int
34 25 61 49 6 18 16 7 49 
4 0 11 558 453 86 63 6454 39135 
42839 3 5 3 13 7 246 24 94 
13 7770 18 50 78009 67 155403 99 129375 
106 23782 1515 6028 902 20604 9981 255 2 

METADATA
INFORMATION 0

RegionSpan 1 45 double
0.034938562661 0.022097086534 0.15625 0.0732877478 0.027063293383 0.022097086534 0.058463398367 0.034938562661 0.068107798696 
0.022097086534 0.015625 0.046875 0.068107798696 0.484375 0.234375 0.265625 0.46587660909 0.474701792 
0.30817317963 0.046875 0.03125 0.049410589039 0.034938562661 0.015625 0.089758791029 0.14320549369 0.11158481985 
0.45794847608 0.46508988738 0.11692679673 0.26608416438 0.39466658235 0.046875 1.2486320734 0.2665425241 1.5097340345 
0.33584663272 0.79365158081 0.4485218823 0.21252298355 0.28470104933 0.40894538164 0.56897318363 0.50437539816 0.022097086534 

METADATA
INFORMATION 0

POINT_DATA 46
FIELD FieldData 2
Scalar 1 46 float
0.616211 0.675345 0.654481 0.567782 0.652109 0.559384 0.627477 0.610592 0.553212 
0.60173 0.531515 0.582747 0.521326 0.560671 0.452578 0.524841 0.487484 0.433936 
0.461156 0.408001 0.435658 0.189533 0.272512 0.190143 0.272307 0.186729 0.23475 
0.233329 0 0.0498922 0.000999577 0.032938 0.00125611 0.0122037 0.0342592 0.0147482 
0.0429108 0.0311749 0.0552588 0.037545 0.0765132 0.0435719 0.0679241 0.540664 0.189616 
0.39822 
METADATA
INFORMATION 0

ttkMaskScalarField 1 46 char
0 0 0 0 0 0 0 0 0 
0 0 0 0 0 0 0 0 0 
0 0 0 0 0 0 0 0 0 
0 0 0 0 0 0 0 0 0 
0 0 0 0 0 0 0 0 0 
0 
METADATA
INFORMATION 0

