# vtk DataFile Version 4.2
vtk output
ASCII
DATASET UNSTRUCTURED_GRID
POINTS 46 float
0.5 1.04688 0.765625 0.484375 1.09375 0.671875 0.46875 1.09375 0.84375 
0.46875 1.04688 0.8125 0.46875 1.04688 0.859375 0.484375 1.04688 0.9375 
0.484375 1.01562 0.953125 0.484375 0.96875 0.015625 0.46875 1 0 
0.484375 0.96875 0.453125 0.46875 0.96875 0.453125 0.46875 0.875 0.8125 
0.46875 0.84375 0.828125 0.484375 0.96875 0.03125 0.46875 0.8125 0.53125 
0.484375 0.828125 0.515625 0.46875 0.90625 0.09375 0.46875 0.890625 0.109375 
0.484375 0.90625 0.015625 0.484375 0.859375 0 0.484375 0.578125 0.75 
0.53125 0.53125 0.75 0.46875 0.578125 0.765625 0.421875 0.53125 0.765625 
0.421875 0.53125 0.234375 0.421875 0.53125 0.015625 0.53125 0.53125 0.21875 
0.53125 0.53125 0 0.46875 0.453125 0 0.703125 0.109375 0.125 
0.71875 1.01562 0.734375 0.65625 1.01562 0.734375 0.234375 1.03125 0.75 
0.34375 1.09375 0.625 0.59375 1.0625 0.828125 0.359375 1.10938 0.625 
0.609375 0.984375 0.703125 0.609375 0.984375 0.71875 0.578125 1.09375 0.9375 
0.59375 1.09375 0.9375 0.546875 0.84375 0.25 0.5625 0.84375 0.234375 
0.40625 0.84375 0.234375 0.390625 0.859375 0.203125 0.484375 1.17188 0.265625 
0.484375 0.859375 0.25 
METADATA
INFORMATION 2
NAME L2_NORM_RANGE LOCATION vtkDataArray
DATA 2 0.651958 1.55812 
NAME L2_NORM_FINITE_RANGE LOCATION vtkDataArray
DATA 2 0.651958 1.55812 

CELLS 45 135
2 0 1 
2 2 3 
2 2 4 
2 5 6 
2 7 8 
2 9 10 
2 11 12 
2 7 13 
2 14 15 
2 16 17 
2 18 19 
2 20 21 
2 22 23 
2 24 25 
2 26 27 
2 28 29 
2 30 31 
2 32 33 
2 34 31 
2 35 33 
2 36 37 
2 38 39 
2 40 41 
2 42 43 
2 0 2 
2 16 7 
2 31 37 
2 33 44 
2 5 0 
2 18 16 
2 37 44 
2 9 5 
2 45 18 
2 44 39 
2 11 9 
2 39 29 
2 14 11 
2 29 41 
2 45 14 
2 41 43 
2 22 45 
2 43 26 
2 20 22 
2 26 24 
2 24 20 

CELL_TYPES 45
3
3
3
3
3
3
3
3
3
3
3
3
3
3
3
3
3
3
3
3
3
3
3
3
3
3
3
3
3
3
3
3
3
3
3
3
3
3
3
3
3
3
3
3
3

CELL_DATA 45
SCALARS SegmentationId int
LOOKUP_TABLE default
44 43 42 41 40 39 38 37 36 
35 34 33 32 31 30 0 1 2 
3 4 5 6 7 8 28 26 10 
11 29 22 12 27 21 16 25 13 
24 9 23 14 17 15 19 18 20 

METADATA
INFORMATION 0

FIELD FieldData 4
upNodeId 1 45 int
0 2 4 5 7 9 11 13 14 
16 18 20 22 24 26 29 31 33 
31 33 37 39 41 43 3 8 37 
44 1 17 44 6 19 39 10 29 
12 41 15 43 45 27 23 25 21 

METADATA
INFORMATION 0

downNodeId 1 45 int
1 3 3 6 8 10 12 8 15 
17 19 21 23 25 27 28 30 32 
34 35 36 38 40 42 1 17 31 
33 6 19 37 10 45 44 12 39 
15 29 45 41 23 43 21 27 25 

METADATA
INFORMATION 0

RegionSize 1 45 int
158 24 15 5 11 3 5 2 5 
3 14 473 535 91 78 6287 36903 45772 
34 2 16 0 13 13 32 46 17415 
18877 63 80 15216 565 16 18591 3 159043 
1065 164545 645 7645 7790 21739 103 63 238 

METADATA
INFORMATION 0

RegionSpan 1 45 double
0.10597390682 0.056336738169 0.049410589039 0.034938562661 0.038273278624 0.015625 0.034938562661 0.015625 0.027063293383 
0.022097086534 0.049410589039 0.066291257739 0.066291257739 0.21875 0.21875 0.43441995978 0.0625 0.17746588588 
0.12203515321 0.022097086534 0.015625 0.015625 0.022097086534 0.038273278624 0.09631896764 0.10126157105 0.058463398367 
0.39373758435 0.17258375883 0.079672180116 0.50606673956 0.49063494802 0.2390165329 0.68518787622 0.37173053622 1.2810593843 
0.28811076283 0.75567513704 0.28555729985 0.17539018393 0.58754986525 0.35733115673 0.022097086534 0.11048543453 0.521510005 

METADATA
INFORMATION 0

POINT_DATA 46
FIELD FieldData 2
Scalar 1 46 float
0.559749 0.63347 0.576038 0.619521 0.613437 0.549342 0.581104 0.473342 0.534931 
0.486467 0.517177 0.486222 0.508182 0.496493 0.41864 0.454502 0.429781 0.454364 
0.391766 0.425605 0.189065 0.27377 0.190696 0.272095 0.185811 0.236562 0.185065 
0.234452 0 0.0499006 0.000963665 0.034127 0.00151995 0.0380944 0.00719096 0.0106958 
0.016479 0.0392865 0.0189495 0.0440093 0.0202308 0.0622956 0.0244183 0.0700063 0.0424359 
0.387861 
METADATA
INFORMATION 0

ttkMaskScalarField 1 46 char
0 0 0 0 0 0 0 0 0 
0 0 0 0 0 0 0 0 0 
0 0 0 0 0 0 0 0 0 
0 0 0 0 0 0 0 0 0 
0 0 0 0 0 0 0 0 0 
0 
METADATA
INFORMATION 0

