# vtk DataFile Version 4.2
vtk output
ASCII
DATASET UNSTRUCTURED_GRID
POINTS 44 float
0.5 1.15625 0.71875 0.484375 1.15625 0.765625 0.46875 1.17188 0.59375 
0.46875 1.125 0.625 0.453125 1.1875 0.796875 0.46875 1.15625 0.828125 
0.46875 1.15625 0.6875 0.46875 1.10938 0.578125 0.484375 1.3125 0.734375 
0.46875 1.32812 0.734375 0.484375 0.890625 0.71875 0.484375 0.90625 0.734375 
0.484375 0.96875 0.046875 0.484375 1.03125 0 0.484375 0.921875 0.78125 
0.46875 0.921875 0.796875 0.484375 0.984375 0.4375 0.484375 0.96875 0.421875 
0.484375 0.96875 0.0625 0.46875 0.578125 0.734375 0.421875 0.53125 0.75 
0.484375 0.578125 0.75 0.53125 0.53125 0.75 0.53125 0.53125 0.203125 
0.53125 0.53125 0.015625 0.421875 0.53125 0.265625 0.421875 0.53125 0 
0.46875 0.453125 0 0.34375 0.125 0.1875 0.734375 1.07812 0.75 
0.671875 1.07812 0.75 0.3125 0.890625 0.234375 0.515625 1.15625 0.015625 
0.640625 1.04688 0.75 0.609375 1.10938 0.65625 0.65625 1.09375 0.6875 
0.40625 0.875 0.25 0.390625 0.875 0.234375 0.578125 1.07812 0.578125 
0.59375 1.09375 0.5625 0.546875 0.875 0.265625 0.578125 0.875 0.28125 
0.46875 1.09375 0.65625 0.46875 0.890625 0.234375 
METADATA
INFORMATION 2
NAME L2_NORM_RANGE LOCATION vtkDataArray
DATA 2 0.41103 1.58838 
NAME L2_NORM_FINITE_RANGE LOCATION vtkDataArray
DATA 2 0.41103 1.58838 

CELLS 43 129
2 0 1 
2 2 3 
2 4 5 
2 0 6 
2 2 7 
2 8 9 
2 10 11 
2 12 13 
2 14 15 
2 16 17 
2 12 18 
2 19 20 
2 21 22 
2 23 24 
2 25 26 
2 27 28 
2 29 30 
2 31 32 
2 33 30 
2 34 35 
2 36 37 
2 38 39 
2 40 41 
2 42 0 
2 42 2 
2 43 12 
2 30 35 
2 4 42 
2 35 32 
2 8 4 
2 32 28 
2 10 8 
2 28 39 
2 14 10 
2 39 37 
2 16 14 
2 37 41 
2 43 16 
2 41 23 
2 21 43 
2 23 25 
2 19 21 
2 25 19 

CELL_TYPES 43
3
3
3
3
3
3
3
3
3
3
3
3
3
3
3
3
3
3
3
3
3
3
3
3
3
3
3
3
3
3
3
3
3
3
3
3
3
3
3
3
3
3
3

CELL_DATA 43
SCALARS SegmentationId int
LOOKUP_TABLE default
42 41 40 39 38 37 36 35 34 
33 32 31 30 29 28 0 1 2 
3 4 5 6 7 27 26 22 9 
16 11 25 10 24 8 23 13 21 
12 20 14 15 17 18 19 
METADATA
INFORMATION 0

FIELD FieldData 4
upNodeId 1 43 int
0 2 4 6 7 8 10 12 14 
16 18 19 21 23 25 28 30 32 
30 35 37 39 41 1 3 13 35 
42 32 5 28 9 39 11 37 15 
41 17 24 43 26 22 20 
METADATA
INFORMATION 0

downNodeId 1 43 int
1 3 5 1 3 9 11 13 15 
17 13 20 22 24 26 27 29 31 
33 34 36 38 40 42 42 43 30 
5 35 9 32 11 28 15 39 17 
37 43 41 22 24 20 26 
METADATA
INFORMATION 0

RegionSize 1 43 int
56 14 73 41 7 3 7 35 5 
4 1 571 452 77 91 6376 35639 47992 
11 15 5 5 15 5 14 151 8025 
30 8627 273 217772 172 155803 43 4733 552 
3011 1639 22880 8607 223 65 124 
METADATA
INFORMATION 0

RegionSpan 1 43 double
0.049410589039 0.056336738169 0.046875 0.044194173068 0.064423523843 0.022097086534 0.022097086534 0.078125 0.022097086534 
0.022097086534 0.015625 0.068107798696 0.066291257739 0.1875 0.265625 0.39805436134 0.0625 0.3995847404 
0.044194173068 0.058463398367 0.022097086534 0.027063293383 0.034938562661 0.09375 0.10004881769 0.20372506976 0.066291257739 
0.16973094642 0.68927329779 0.14320549369 1.0595086813 0.42216426134 1.0684576035 0.069877125323 0.44359591603 0.34938561916 
0.19327057898 0.22426094115 0.3556189537 0.60313308239 0.12597277761 0.022097086534 0.47341430187 
METADATA
INFORMATION 0

POINT_DATA 44
FIELD FieldData 2
Scalar 1 44 float
0.589591 0.664938 0.592349 0.649107 0.5802 0.646355 0.645014 0.629372 0.539724 
0.572022 0.518134 0.554134 0.467318 0.547958 0.513677 0.546326 0.477015 0.508053 
0.489897 0.188995 0.27435 0.189861 0.271814 0.185055 0.23631 0.187252 0.233367 
0 0.0499007 0.000395533 0.0320705 0.000842642 0.0373155 0.00536018 0.00825098 0.0347346 
0.022617 0.067184 0.0351422 0.0629003 0.0467375 0.0708345 0.587421 0.394904 
METADATA
INFORMATION 0

ttkMaskScalarField 1 44 char
0 0 0 0 0 0 0 0 0 
0 0 0 0 0 0 0 0 0 
0 0 0 0 0 0 0 0 0 
0 0 0 0 0 0 0 0 0 
0 0 0 0 0 0 0 0 
METADATA
INFORMATION 0

