# vtk DataFile Version 4.2
vtk output
ASCII
DATASET UNSTRUCTURED_GRID
POINTS 40 float
0.46875 1.21875 0.734375 0.46875 1.21875 0.703125 0.46875 1.20312 0.765625 
0.46875 1.125 0.78125 0.46875 1.125 0.796875 0.484375 1.10938 0.875 
0.46875 1.07812 0.953125 0.46875 1.125 0.59375 0.5 1.125 0.546875 
0.484375 0.875 0.265625 0.46875 1.03125 0 0.484375 0.953125 0.625 
0.484375 0.875 0.625 0.484375 0.90625 0.578125 0.484375 0.875 0.5625 
0.46875 0.953125 0.421875 0.484375 0.953125 0.40625 0.53125 0.53125 0.3125 
0.53125 0.53125 0.734375 0.453125 0.578125 0.6875 0.421875 0.53125 0.6875 
0.421875 0.53125 0.21875 0.421875 0.53125 0 0.53125 0.53125 0.015625 
0.46875 0.453125 0 0.3125 0.015625 0.203125 0.25 1.09375 0.609375 
0.484375 1.23438 0.25 0.71875 1.0625 0.6875 0.640625 1.09375 0.859375 
0.625 1.04688 0.765625 0.578125 1.125 0.90625 0.578125 1.125 0.921875 
0.609375 1.04688 0.671875 0.625 1.03125 0.71875 0.40625 0.875 0.265625 
0.375 0.875 0.28125 0.546875 0.875 0.234375 0.578125 0.875 0.234375 
0.484375 0.578125 0.71875 
METADATA
INFORMATION 2
NAME L2_NORM_RANGE LOCATION vtkDataArray
DATA 2 0.373042 1.56515 
NAME L2_NORM_FINITE_RANGE LOCATION vtkDataArray
DATA 2 0.373042 1.56515 

CELLS 39 117
2 0 1 
2 0 2 
2 3 4 
2 5 6 
2 7 8 
2 9 10 
2 11 12 
2 13 14 
2 15 16 
2 17 18 
2 19 20 
2 21 22 
2 17 23 
2 24 25 
2 26 27 
2 28 29 
2 30 29 
2 31 32 
2 33 34 
2 35 36 
2 37 38 
2 3 0 
2 39 17 
2 29 34 
2 5 3 
2 34 27 
2 7 5 
2 27 32 
2 11 7 
2 32 25 
2 13 11 
2 25 38 
2 15 13 
2 38 36 
2 9 15 
2 36 21 
2 19 9 
2 21 39 
2 39 19 

CELL_TYPES 39
3
3
3
3
3
3
3
3
3
3
3
3
3
3
3
3
3
3
3
3
3
3
3
3
3
3
3
3
3
3
3
3
3
3
3
3
3
3
3

CELL_DATA 39
SCALARS SegmentationId int
LOOKUP_TABLE default
38 37 36 35 34 33 32 31 30 
29 28 27 26 0 1 2 3 4 
5 6 7 25 17 10 24 12 23 
9 22 11 20 8 19 14 18 13 
21 15 16 
METADATA
INFORMATION 0

FIELD FieldData 4
upNodeId 1 39 int
0 2 3 5 7 9 11 13 15 
17 19 21 23 25 27 29 29 32 
34 36 38 1 18 34 4 27 6 
32 8 25 12 38 14 36 16 22 
10 39 20 
METADATA
INFORMATION 0

downNodeId 1 39 int
1 1 4 6 8 10 12 14 16 
18 20 22 18 24 26 28 30 31 
33 35 37 4 39 29 6 34 8 
27 12 32 14 25 16 38 10 36 
20 22 39 
METADATA
INFORMATION 0

RegionSize 1 39 int
17 13 24 37 52 193 8 4 8 
445 580 94 70 6802 63260 38344 26 0 
12 8 9 71 30 7472 336 22760 267 
67633 309 122149 187 156552 396 822 1007 24851 
9075 274 51 
METADATA
INFORMATION 0

RegionSpan 1 39 double
0.03125 0.034938562661 0.015625 0.08558165282 0.056336738169 0.30856901407 0.078125 0.034938562661 0.022097086534 
0.421875 0.056336738169 0.21875 0.296875 0.50703066587 0.45150572062 0.19136638939 0.10597390682 0.015625 
0.051822263747 0.034938562661 0.03125 0.10481568426 0.41162312031 0.15467961133 0.09631896764 0.52986955643 0.28211671114 
0.68714481592 0.17539018393 1.348284483 0.066291257739 0.9000325799 0.1638763845 0.20846350491 0.17539018393 0.35251605511 
0.51680737734 0.50606673956 0.044194173068 
METADATA
INFORMATION 0

POINT_DATA 40
FIELD FieldData 2
Scalar 1 40 float
0.632861 0.66699 0.656222 0.59688 0.636115 0.530708 0.585393 0.503903 0.577358 
0.395333 0.534642 0.479432 0.505356 0.4678 0.50055 0.44463 0.478678 0.190339 
0.272192 0.188344 0.271926 0.184515 0.23403 0.233696 0 0.0499132 0.00121347 
0.0412135 0.00144834 0.033048 0.00459775 0.00732359 0.0464636 0.011964 0.0353952 0.0206623 
0.067846 0.0289039 0.0669092 0.187742 
METADATA
INFORMATION 0

ttkMaskScalarField 1 40 char
0 0 0 0 0 0 0 0 0 
0 0 0 0 0 0 0 0 0 
0 0 0 0 0 0 0 0 0 
0 0 0 0 0 0 0 0 0 
0 0 0 0 
METADATA
INFORMATION 0

