# vtk DataFile Version 4.2
vtk output
ASCII
DATASET UNSTRUCTURED_GRID
POINTS 94 float
0.5 1.39062 0.734375 0.4375 1.35938 0.703125 0.46875 1.34375 0.765625 
0.453125 1.25 0.828125 0.484375 1.35938 0.875 0.453125 1.1875 0.8125 
0.453125 1.1875 0.78125 0.453125 1.17188 0.765625 0.46875 1.26562 0.546875 
0.5 1.26562 0.515625 0.46875 1.29688 0.578125 0.453125 1.3125 0.59375 
0.453125 1.07812 0.75 0.46875 1.03125 0.75 0.46875 1.29688 0.5625 
0.515625 1.17188 0.65625 0.484375 1.0625 0.640625 0.453125 1.03125 0.953125 
0.453125 1.1875 0.96875 0.515625 1.23438 0.6875 0.515625 1.1875 0.671875 
0.453125 1.26562 0.75 0.453125 1.25 0.75 0.453125 1.39062 0.625 
0.4375 1.40625 0.59375 0.484375 0.9375 0.765625 0.46875 0.96875 0.796875 
0.46875 1.04688 0.671875 0.46875 1 0.6875 0.46875 1 0.625 
0.484375 1.03125 0.609375 0.515625 1.125 0.453125 0.46875 1.10938 0.4375 
0.46875 1.51562 0.734375 0.46875 1.53125 0.75 0.453125 1.09375 0.015625 
0.4375 1.14062 0 0.484375 1.09375 0.546875 0.484375 1.10938 0.546875 
0.484375 1.07812 0.53125 0.46875 1.03125 0.53125 0.484375 1.0625 0.390625 
0.484375 1.03125 0.375 0.46875 0.96875 0.96875 0.46875 1.07812 0.046875 
0.5 1.04688 0.09375 0.46875 1.09375 0.03125 0.46875 0.890625 0.484375 
0.46875 0.96875 0.484375 0.484375 1.03125 0.109375 0.46875 1.03125 0.109375 
0.484375 1.01562 0.03125 0.484375 0.9375 0.046875 0.46875 0.984375 0.203125 
0.484375 0.96875 0.21875 0.515625 1.32812 0.921875 0.53125 1.3125 0.9375 
0.484375 0.578125 0.75 0.53125 0.53125 0.765625 0.46875 0.578125 0.765625 
0.421875 0.53125 0.71875 0.5625 1.15625 0.625 0.578125 1.20312 0.59375 
0.421875 0.53125 0.234375 0.421875 0.53125 0.015625 0.53125 0.53125 0.21875 
0.53125 0.53125 0 0.375 1.95312 0.203125 0.515625 1.35938 0 
0.46875 0.453125 0 0.265625 0.03125 0.21875 0.1875 1.21875 0.796875 
0.4375 1.3125 0.4375 0.71875 1.20312 0.859375 0.3125 1.15625 0.796875 
0.3125 1.17188 0.796875 0.578125 1.28125 0.65625 0.625 1.25 0.6875 
0.390625 0.96875 0.21875 0.359375 0.96875 0.234375 0.578125 0.96875 0.25 
0.59375 0.96875 0.265625 0.53125 1.17188 0.96875 0.546875 1.17188 0.96875 
0.515625 1.14062 0 0.53125 1.1875 0 0.375 1.28125 0.65625 
0.40625 1.25 0.6875 0.390625 1.29688 0.78125 0.375 1.29688 0.78125 
0.453125 1.28125 0.796875 0.484375 0.828125 0.9375 0.46875 1.42188 0.640625 
0.484375 0.984375 0.25 
METADATA
INFORMATION 2
NAME L2_NORM_RANGE LOCATION vtkDataArray
DATA 2 0.345521 1.99915 
NAME L2_NORM_FINITE_RANGE LOCATION vtkDataArray
DATA 2 0.345521 1.99915 

CELLS 93 279
2 0 1 
2 0 2 
2 3 4 
2 3 5 
2 6 7 
2 8 9 
2 10 11 
2 12 13 
2 10 14 
2 15 16 
2 17 18 
2 19 20 
2 21 22 
2 23 24 
2 25 26 
2 27 28 
2 29 30 
2 31 32 
2 33 34 
2 35 36 
2 37 38 
2 39 40 
2 41 42 
2 17 43 
2 44 45 
2 35 46 
2 47 48 
2 49 50 
2 51 52 
2 53 54 
2 55 56 
2 57 58 
2 59 60 
2 61 62 
2 63 64 
2 65 66 
2 67 68 
2 69 70 
2 71 72 
2 73 72 
2 74 75 
2 76 77 
2 78 79 
2 80 81 
2 82 83 
2 84 85 
2 86 87 
2 88 89 
2 90 0 
2 6 3 
2 8 10 
2 91 17 
2 44 35 
2 72 75 
2 90 6 
2 23 8 
2 49 44 
2 75 77 
2 12 90 
2 92 23 
2 53 49 
2 77 67 
2 19 12 
2 93 53 
2 67 70 
2 15 19 
2 70 79 
2 21 15 
2 79 81 
2 25 21 
2 81 83 
2 27 25 
2 83 65 
2 92 27 
2 65 63 
2 29 92 
2 63 57 
2 33 29 
2 57 59 
2 37 33 
2 59 87 
2 39 37 
2 87 61 
2 91 39 
2 61 85 
2 47 91 
2 85 89 
2 31 47 
2 89 55 
2 41 31 
2 55 51 
2 93 41 
2 51 93 

CELL_TYPES 93
3
3
3
3
3
3
3
3
3
3
3
3
3
3
3
3
3
3
3
3
3
3
3
3
3
3
3
3
3
3
3
3
3
3
3
3
3
3
3
3
3
3
3
3
3
3
3
3
3
3
3
3
3
3
3
3
3
3
3
3
3
3
3
3
3
3
3
3
3
3
3
3
3
3
3
3
3
3
3
3
3
3
3
3
3
3
3
3
3
3
3
3
3

CELL_DATA 93
SCALARS SegmentationId int
LOOKUP_TABLE default
92 91 90 89 88 87 86 85 84 
83 82 81 80 79 78 77 76 75 
74 73 72 71 70 69 68 67 66 
65 64 63 62 61 60 59 58 57 
56 0 1 2 3 4 5 6 7 
8 9 10 55 54 51 48 39 12 
53 52 35 13 27 45 33 14 50 
31 21 47 11 49 15 46 16 44 
17 43 28 25 30 42 29 40 23 
38 19 37 22 26 18 34 20 41 
32 36 24 
METADATA
INFORMATION 0

FIELD FieldData 4
upNodeId 1 93 int
0 2 3 5 6 8 10 12 14 
15 17 19 21 23 25 27 29 31 
33 35 37 39 41 43 44 46 47 
49 51 53 55 57 59 61 63 65 
67 70 72 72 75 77 79 81 83 
85 87 89 1 4 11 18 36 75 
7 9 45 77 90 24 50 68 13 
54 70 20 79 16 81 22 83 26 
66 28 64 92 58 30 60 34 87 
38 62 40 85 91 89 48 56 32 
52 42 93 
METADATA
INFORMATION 0

downNodeId 1 93 int
1 1 4 4 7 9 11 13 11 
16 18 20 22 24 26 28 30 32 
34 36 38 40 42 18 45 36 48 
50 52 54 56 58 60 62 64 66 
68 69 71 73 74 76 78 80 82 
84 86 88 90 7 9 91 45 72 
90 24 50 75 13 92 54 77 20 
93 68 16 70 22 79 26 81 28 
83 92 66 30 64 34 58 38 60 
40 87 91 62 48 85 32 89 42 
56 93 52 
METADATA
INFORMATION 0

RegionSize 1 93 int
80 42 29 11 6 4 10 5 3 
20 77 4 2 8 17 20 8 49 
0 20 0 9 23 20 11 10 4 
15 14 7 8 462 535 19 75 78 
5063 7255 29877 34617 0 26 10 12 5 
32 12 2 1 29 1 5 1 64079 
11 39 25 86824 141 43 74 98209 101 
12 22106 43 138444 23 2447 66 2323 1 
13266 29 549 44 36 195 117 590 621 
682 1664 160 906 185 1037 27 7321 265 
1996 837 3 
METADATA
INFORMATION 0

RegionSpan 1 93 double
0.076546557248 0.064423523843 0.12303137034 0.064423523843 0.022097086534 0.044194173068 0.027063293383 0.049410589039 0.015625 
0.11481983215 0.15702930093 0.049410589039 0.015625 0.038273278624 0.046875 0.049410589039 0.038273278624 0.051822263747 
0.022097086534 0.051822263747 0.015625 0.049410589039 0.034938562661 0.066291257739 0.064423523843 0.022097086534 0.078125 
0.015625 0.079672180116 0.027063293383 0.027063293383 0.068107798696 0.081189878285 0.058463398367 0.21875 0.21875 
0.64309734106 0.51680737734 0.44770464301 0.51869350672 0.015625 0.064423523843 0.034938562661 0.022097086534 0.015625 
0.049410589039 0.054126586765 0.015625 0.13441133499 0.078125 0.044194173068 0.20610789955 0.038273278624 0.40564858913 
0.095043167472 0.14823175967 0.079672180116 0.34018033743 0.20846350491 0.038273278624 0.10597390682 0.8896650672 0.17951758206 
0.049410589039 1.9250482321 0.069877125323 0.94230538607 0.1465754956 0.23644915223 0.32997986674 0.73337697983 0.14490029216 
0.9864808917 0.37629982829 0.11048543453 0.42216426134 0.521510005 0.52709776163 0.022097086534 0.46192955971 0.6792832613 
0.022097086534 0.19263793528 0.47701054811 0.62656056881 0.4576818347 0.80419433117 0.24105076492 0.20131404698 0.09375 
0.94437581301 0.16086922586 0.22097086906 
METADATA
INFORMATION 0

POINT_DATA 94
FIELD FieldData 2
Scalar 1 94 float
0.576587 0.672771 0.656022 0.595235 0.646837 0.625461 0.581804 0.615998 0.562123 
0.597409 0.564024 0.595995 0.556539 0.592988 0.587005 0.541498 0.577164 0.455624 
0.576513 0.544859 0.570843 0.539776 0.569559 0.546045 0.569223 0.53427 0.568332 
0.534071 0.561788 0.529086 0.553364 0.443695 0.550555 0.519369 0.540927 0.451853 
0.514066 0.490812 0.513352 0.460199 0.509131 0.434479 0.498981 0.488263 0.449864 
0.48469 0.479167 0.444758 0.478693 0.436551 0.478662 0.406935 0.453009 0.410286 
0.441509 0.362849 0.388186 0.1898 0.272951 0.190811 0.272534 0.221854 0.269295 
0.189399 0.236233 0.184467 0.234251 0.0494632 0.0811884 0 0.0499197 0.00102794 
0.0255497 0.00103296 0.00697747 0.0360491 0.0212546 0.0439748 0.0528431 0.0878837 0.0631926 
0.0948411 0.0752365 0.102648 0.0961629 0.234045 0.15626 0.199313 0.22438 0.248262 
0.576126 0.452028 0.531979 0.407144 
METADATA
INFORMATION 0

ttkMaskScalarField 1 94 char
0 0 0 0 0 0 0 0 0 
0 0 0 0 0 0 0 0 0 
0 0 0 0 0 0 0 0 0 
0 0 0 0 0 0 0 0 0 
0 0 0 0 0 0 0 0 0 
0 0 0 0 0 0 0 0 0 
0 0 0 0 0 0 0 0 0 
0 0 0 0 0 0 0 0 0 
0 0 0 0 0 0 0 0 0 
0 0 0 0 0 0 0 0 0 
0 0 0 0 
METADATA
INFORMATION 0

