# vtk DataFile Version 4.2
vtk output
ASCII
DATASET UNSTRUCTURED_GRID
POINTS 40 float
0.484375 1.20312 0.71875 0.46875 1.10938 0.703125 0.46875 1.07812 0.765625 
0.484375 1.10938 0.8125 0.46875 1.0625 0.859375 0.46875 1.0625 0.59375 
0.46875 1.0625 0.578125 0.46875 0.890625 0.015625 0.484375 1 0 
0.5 0.890625 0.546875 0.484375 0.890625 0.578125 0.46875 0.921875 0.421875 
0.484375 0.921875 0.40625 0.46875 0.84375 0 0.46875 0.578125 0.734375 
0.421875 0.53125 0.71875 0.53125 0.53125 0.234375 0.53125 0.53125 0.75 
0.53125 0.53125 0 0.421875 0.53125 0.203125 0.421875 0.53125 0 
0.46875 0.453125 0 0.5625 0.046875 0.234375 0.71875 1.03125 0.765625 
0.484375 1.17188 0.21875 0.265625 1.04688 0.59375 0.3125 1.0625 0.84375 
0.34375 1.07812 0.640625 0.328125 1.09375 0.609375 0.609375 1.04688 0.640625 
0.609375 1.03125 0.671875 0.359375 1.0625 0.84375 0.546875 0.84375 0.21875 
0.5625 0.84375 0.234375 0.40625 0.84375 0.25 0.390625 0.84375 0.28125 
0.578125 1.03125 0.90625 0.59375 1.04688 0.921875 0.484375 0.84375 0.234375 
0.484375 0.578125 0.75 
METADATA
INFORMATION 2
NAME L2_NORM_RANGE LOCATION vtkDataArray
DATA 2 0.611175 1.51603 
NAME L2_NORM_FINITE_RANGE LOCATION vtkDataArray
DATA 2 0.611175 1.51603 

CELLS 39 117
2 0 1 
2 0 2 
2 3 4 
2 5 6 
2 7 8 
2 9 10 
2 11 12 
2 7 13 
2 14 15 
2 16 17 
2 16 18 
2 19 20 
2 21 22 
2 23 24 
2 25 26 
2 27 28 
2 29 30 
2 31 26 
2 32 33 
2 34 35 
2 36 37 
2 5 0 
2 38 7 
2 39 16 
2 26 28 
2 3 5 
2 28 24 
2 11 3 
2 24 30 
2 9 11 
2 30 22 
2 38 9 
2 22 33 
2 14 38 
2 33 37 
2 39 14 
2 37 35 
2 19 39 
2 35 19 

CELL_TYPES 39
3
3
3
3
3
3
3
3
3
3
3
3
3
3
3
3
3
3
3
3
3
3
3
3
3
3
3
3
3
3
3
3
3
3
3
3
3
3
3

CELL_DATA 39
SCALARS SegmentationId int
LOOKUP_TABLE default
38 37 36 35 34 33 32 31 30 
29 28 27 0 1 2 3 4 5 
6 7 8 26 23 19 11 24 12 
25 10 21 13 22 9 18 14 20 
16 17 15 
METADATA
INFORMATION 0

FIELD FieldData 4
upNodeId 1 39 int
0 2 3 5 7 9 11 13 14 
16 18 19 22 24 26 28 30 26 
33 35 37 1 8 17 28 6 24 
4 30 12 22 10 33 38 37 15 
35 39 20 
METADATA
INFORMATION 0

downNodeId 1 39 int
1 1 4 6 8 10 12 8 15 
17 17 20 21 23 25 27 29 31 
32 34 36 6 38 39 26 4 28 
12 24 10 30 38 22 15 33 39 
37 20 35 
METADATA
INFORMATION 0

RegionSize 1 39 int
25 32 40 3 164 11 4 17 564 
454 61 80 6091 69096 37815 15 11 17 
9 13 6 93 0 5 7278 22 17396 
1032 20150 182 160237 1085 152996 7702 14290 12 
4368 62 22810 
METADATA
INFORMATION 0

RegionSpan 1 39 double
0.09631896764 0.13441133499 0.068107798696 0.015625 0.11158481985 0.034938562661 0.022097086534 0.049410589039 0.068107798696 
0.515625 0.234375 0.203125 0.47828838229 0.61137491465 0.25483605266 0.038273278624 0.034938562661 0.046875 
0.022097086534 0.034938562661 0.027063293383 0.18879759312 0.22426094115 0.51986891031 0.23696485162 0.22426094115 0.42790824175 
0.43357616663 0.49063494802 0.13258251548 1.0782382488 0.31638213992 0.796875 0.56639277935 0.71756017208 0.022097086534 
0.70208257437 0.55242717266 0.32362991571 
METADATA
INFORMATION 0

POINT_DATA 40
FIELD FieldData 2
Scalar 1 40 float
0.602674 0.663734 0.636974 0.569417 0.603618 0.57478 0.603521 0.388711 0.524944 
0.448105 0.491594 0.460857 0.486482 0.417457 0.190253 0.273585 0.19018 0.271741 
0.235715 0.189123 0.232613 0 0.0498972 0.00157367 0.0421801 0.00169965 0.0356108 
0.0124611 0.0379805 0.0128794 0.0438871 0.013621 0.0179898 0.0568583 0.0200321 0.0693172 
0.0323189 0.0645854 0.38849 0.18991 
METADATA
INFORMATION 0

ttkMaskScalarField 1 40 char
0 0 0 0 0 0 0 0 0 
0 0 0 0 0 0 0 0 0 
0 0 0 0 0 0 0 0 0 
0 0 0 0 0 0 0 0 0 
0 0 0 0 
METADATA
INFORMATION 0

