# vtk DataFile Version 4.2
vtk output
ASCII
DATASET UNSTRUCTURED_GRID
POINTS 54 float
0.46875 1.25 0.71875 0.484375 1.25 0.734375 0.484375 1.26562 0.6875 
0.46875 1.20312 0.765625 0.484375 1.28125 0.796875 0.484375 1.15625 0.671875 
0.484375 1.15625 0.625 0.46875 1.09375 0.5 0.484375 1.04688 0.453125 
0.484375 1.15625 0.921875 0.46875 1.10938 0.9375 0.484375 0.984375 0.8125 
0.484375 0.953125 0.8125 0.4375 1.14062 0.578125 0.453125 1.14062 0.5625 
0.46875 1.04688 0.9375 0.484375 1 0.921875 0.46875 0.984375 0.078125 
0.46875 1.01562 0.046875 0.484375 0.984375 0.40625 0.46875 0.96875 0.375 
0.46875 0.890625 0.953125 0.484375 0.90625 0.96875 0.484375 0.96875 0.09375 
0.46875 0.828125 0.515625 0.484375 0.828125 0.5 0.46875 0.953125 0.015625 
0.453125 0.90625 0 0.46875 0.578125 0.796875 0.421875 0.53125 0.703125 
0.484375 0.578125 0.78125 0.53125 0.53125 0.765625 0.53125 0.53125 0.28125 
0.53125 0.53125 0.015625 0.421875 0.53125 0.25 0.421875 0.53125 0 
0.46875 1.875 0.28125 0.484375 1.35938 0 0.46875 0.453125 0 
0.625 0.015625 0.421875 0.265625 1.14062 0.90625 0.671875 1.10938 0.78125 
0.640625 1.09375 0.765625 0.328125 1.07812 0.703125 0.328125 1.10938 0.65625 
0.390625 0.90625 0.234375 0.375 0.90625 0.234375 0.5625 1.23438 0.5625 
0.5625 1.23438 0.546875 0.5625 0.90625 0.265625 0.578125 0.90625 0.28125 
0.453125 1.25 0.625 0.453125 1.23438 0.625 0.46875 0.90625 0.25 

METADATA
INFORMATION 2
NAME L2_NORM_RANGE LOCATION vtkDataArray
DATA 2 0.651958 1.95306 
NAME L2_NORM_FINITE_RANGE LOCATION vtkDataArray
DATA 2 0.651958 1.95306 

CELLS 53 159
2 0 1 
2 0 2 
2 3 4 
2 5 6 
2 7 8 
2 9 10 
2 11 12 
2 13 14 
2 15 16 
2 17 18 
2 19 20 
2 21 22 
2 17 23 
2 24 25 
2 26 27 
2 28 29 
2 30 31 
2 32 33 
2 34 35 
2 36 37 
2 38 39 
2 40 41 
2 42 41 
2 43 44 
2 45 46 
2 47 48 
2 49 50 
2 51 52 
2 3 0 
2 53 17 
2 41 44 
2 5 3 
2 44 39 
2 9 5 
2 39 36 
2 13 9 
2 36 48 
2 11 13 
2 48 46 
2 15 11 
2 46 50 
2 7 15 
2 50 32 
2 21 7 
2 32 34 
2 19 21 
2 34 30 
2 24 19 
2 30 28 
2 53 24 
2 28 52 
2 26 53 
2 52 26 

CELL_TYPES 53
3
3
3
3
3
3
3
3
3
3
3
3
3
3
3
3
3
3
3
3
3
3
3
3
3
3
3
3
3
3
3
3
3
3
3
3
3
3
3
3
3
3
3
3
3
3
3
3
3
3
3
3
3

CELL_DATA 53
SCALARS SegmentationId int
LOOKUP_TABLE default
52 51 50 49 48 47 46 45 44 
43 42 41 40 39 38 37 36 35 
34 33 0 1 2 3 4 5 6 
7 32 24 9 31 10 30 8 28 
15 26 12 27 11 25 13 29 18 
22 19 23 20 21 17 16 14 
METADATA
INFORMATION 0

FIELD FieldData 4
upNodeId 1 53 int
0 2 3 5 7 9 11 13 15 
17 19 21 23 24 26 28 30 32 
34 36 39 41 41 44 46 48 50 
52 1 18 44 4 39 6 37 10 
48 14 46 12 50 16 33 8 35 
22 31 20 29 25 52 53 27 
METADATA
INFORMATION 0

downNodeId 1 53 int
1 1 4 6 8 10 12 14 16 
18 20 22 18 25 27 29 31 33 
35 37 38 40 42 43 45 47 49 
51 4 53 41 6 44 10 39 14 
37 12 48 16 46 8 50 22 33 
20 35 25 31 53 29 27 52 
METADATA
INFORMATION 0

RegionSize 1 53 int
21 26 79 26 29 7 10 14 11 
77 10 7 8 6 37 573 448 71 
77 5922 7322 56330 16 17 9 0 9 
2 50 49 74632 62 195967 348 44024 233 
92834 160 10428 152 753 56 21096 870 99 
15 22 550 17 257 4868 921 4607 
METADATA
INFORMATION 0

RegionSpan 1 53 double
0.022097086534 0.038273278624 0.08558165282 0.046875 0.068107798696 0.051822263747 0.03125 0.022097086534 0.051822263747 
0.044194173068 0.038273278624 0.027063293383 0.027063293383 0.022097086534 0.051822263747 0.11481983215 0.068107798696 0.265625 
0.25 0.58754986525 0.62753391266 0.4261931777 0.038273278624 0.056336738169 0.015625 0.015625 0.022097086534 
0.015625 0.066291257739 0.18879759312 0.36577185988 0.10597390682 1.1573052406 0.25 1.8712201118 0.34728297591 
0.69981861115 0.28555729985 0.49038609862 0.140625 0.20846350491 0.44000399113 0.37791833282 0.49657025933 0.11375171691 
0.5550724864 0.53696376085 0.19136638939 0.022097086534 0.27687570453 0.67856407166 0.2390165329 0.67132973671 
METADATA
INFORMATION 0

POINT_DATA 54
FIELD FieldData 2
Scalar 1 54 float
0.624992 0.687835 0.679089 0.601618 0.677771 0.585942 0.627828 0.481427 0.566918 
0.534305 0.561855 0.497022 0.543453 0.509317 0.532813 0.484511 0.524287 0.417693 
0.497329 0.437063 0.490364 0.437836 0.48737 0.450921 0.414631 0.437044 0.374913 
0.43341 0.189857 0.272232 0.189689 0.271975 0.188226 0.236728 0.189418 0.233277 
0.0501771 0.0727395 0 0.0499122 0.00078826 0.0282432 0.00405947 0.0151042 0.0396539 
0.036687 0.0744264 0.0368805 0.0626598 0.0466482 0.0757731 0.254407 0.27775 0.404178 

METADATA
INFORMATION 0

ttkMaskScalarField 1 54 char
0 0 0 0 0 0 0 0 0 
0 0 0 0 0 0 0 0 0 
0 0 0 0 0 0 0 0 0 
0 0 0 0 0 0 0 0 0 
0 0 0 0 0 0 0 0 0 
0 0 0 0 0 0 0 0 0 

METADATA
INFORMATION 0

