# vtk DataFile Version 4.2
vtk output
ASCII
DATASET UNSTRUCTURED_GRID
POINTS 76 float
0.421875 1.23438 0.71875 0.4375 1.26562 0.703125 0.46875 1.28125 0.78125 
0.515625 1.375 0.765625 0.46875 1.15625 0.84375 0.484375 1.28125 0.859375 
0.46875 1.23438 0.78125 0.453125 1.3125 0.59375 0.46875 1.1875 0.546875 
0.46875 1.20312 0.796875 0.453125 1.14062 0.796875 0.421875 1.21875 0.71875 
0.4375 1.35938 0.59375 0.46875 1.03125 0.9375 0.453125 1.15625 0.96875 
0.5 1.17188 0.671875 0.5 1.10938 0.65625 0.46875 1.04688 0.765625 
0.46875 0.96875 0.75 0.453125 1.07812 0.8125 0.46875 1 0.828125 
0.5 1.10938 0.453125 0.46875 1.07812 0.4375 0.484375 0.90625 0.765625 
0.46875 0.9375 0.796875 0.46875 0.90625 0.734375 0.46875 0.96875 0.703125 
0.484375 1.0625 0.046875 0.453125 1.125 0 0.484375 0.890625 0.5625 
0.46875 1 0.53125 0.484375 1.03125 0.390625 0.484375 1 0.375 
0.46875 0.921875 0.96875 0.5 1.01562 0.09375 0.484375 0.984375 0.09375 
0.46875 1 0.109375 0.484375 0.890625 0.5 0.46875 0.921875 0.484375 
0.46875 1.01562 0.015625 0.484375 1 0 0.46875 0.96875 0.15625 
0.484375 0.96875 0.171875 0.484375 0.953125 0.25 0.484375 0.953125 0.21875 
0.484375 0.578125 0.75 0.53125 0.53125 0.75 0.46875 0.578125 0.765625 
0.421875 0.53125 0.71875 0.421875 0.53125 0.1875 0.421875 0.53125 0.015625 
0.53125 0.53125 0.21875 0.53125 0.53125 0 0.390625 1.98438 0.28125 
0.515625 1.34375 0 0.46875 0.453125 0 0.296875 0.015625 0.421875 
0.203125 1.1875 0.828125 0.5625 1.29688 0.484375 0.71875 1.17188 0.859375 
0.390625 1.28125 0.9375 0.359375 1.28125 0.921875 0.640625 1.09375 0.71875 
0.640625 1.10938 0.75 0.625 1.07812 0.6875 0.625 1.09375 0.6875 
0.390625 0.953125 0.234375 0.359375 0.953125 0.21875 0.5625 0.9375 0.234375 
0.59375 0.953125 0.296875 0.515625 1.125 0 0.53125 1.15625 0 
0.46875 1.35938 0.734375 0.46875 1.35938 0.640625 0.484375 0.921875 0.9375 
0.484375 0.96875 0.203125 
METADATA
INFORMATION 2
NAME L2_NORM_RANGE LOCATION vtkDataArray
DATA 2 0.516098 2.04192 
NAME L2_NORM_FINITE_RANGE LOCATION vtkDataArray
DATA 2 0.516098 2.04192 

CELLS 75 225
2 0 1 
2 2 3 
2 4 5 
2 2 6 
2 7 8 
2 9 10 
2 0 11 
2 7 12 
2 13 14 
2 15 16 
2 17 18 
2 19 20 
2 21 22 
2 23 24 
2 25 26 
2 27 28 
2 29 30 
2 31 32 
2 13 33 
2 27 34 
2 35 36 
2 37 38 
2 39 40 
2 41 42 
2 43 44 
2 45 46 
2 47 48 
2 49 50 
2 51 52 
2 53 54 
2 55 56 
2 57 58 
2 59 58 
2 60 61 
2 62 63 
2 64 65 
2 66 67 
2 68 69 
2 70 71 
2 9 2 
2 72 0 
2 73 7 
2 74 13 
2 35 27 
2 58 61 
2 72 9 
2 39 35 
2 61 63 
2 15 72 
2 41 39 
2 63 65 
2 4 15 
2 75 41 
2 65 53 
2 73 4 
2 53 56 
2 19 73 
2 56 67 
2 17 19 
2 67 69 
2 25 17 
2 69 51 
2 23 25 
2 51 49 
2 29 23 
2 49 45 
2 21 29 
2 45 47 
2 31 21 
2 47 71 
2 74 31 
2 71 75 
2 37 74 
2 75 43 
2 43 37 

CELL_TYPES 75
3
3
3
3
3
3
3
3
3
3
3
3
3
3
3
3
3
3
3
3
3
3
3
3
3
3
3
3
3
3
3
3
3
3
3
3
3
3
3
3
3
3
3
3
3
3
3
3
3
3
3
3
3
3
3
3
3
3
3
3
3
3
3
3
3
3
3
3
3
3
3
3
3
3
3

CELL_DATA 75
SCALARS SegmentationId int
LOOKUP_TABLE default
74 73 72 71 70 69 68 67 66 
65 64 63 62 61 60 59 58 57 
56 55 54 53 52 51 50 49 48 
47 46 45 0 1 2 3 4 5 
6 7 8 43 44 41 39 32 10 
40 29 11 21 27 12 38 26 13 
42 17 20 9 36 14 37 15 33 
22 34 24 31 23 35 18 30 16 
19 25 28 
METADATA
INFORMATION 0

FIELD FieldData 4
upNodeId 1 75 int
0 2 4 6 7 9 11 12 13 
15 17 19 21 23 25 27 29 31 
33 34 35 37 39 41 43 45 47 
49 51 53 56 58 58 61 63 65 
67 69 71 3 1 8 14 28 61 
10 36 63 72 40 65 16 42 54 
5 56 73 67 20 69 18 52 26 
50 24 46 30 48 22 71 32 75 
74 44 38 
METADATA
INFORMATION 0

downNodeId 1 75 int
1 3 5 3 8 10 1 8 14 
16 18 20 22 24 26 28 30 32 
14 28 36 38 40 42 44 46 48 
50 52 54 55 57 59 60 62 64 
66 68 70 10 72 73 74 36 58 
72 40 61 16 42 63 5 75 65 
73 54 20 56 18 67 26 69 24 
52 30 50 22 46 32 48 74 71 
38 75 44 
METADATA
INFORMATION 0

RegionSize 1 75 int
30 14 70 10 41 14 4 6 88 
7 10 12 24 16 18 19 12 10 
19 9 9 3 12 4 7 461 531 
76 78 5499 6918 25233 28701 15 5 0 
13 20 19 45 74 38 6 32 19057 
10 11 79459 51 40 28415 9 18 147434 
8 3765 80 141415 16 2157 237 18343 134 
465 932 112 55 100 329 3655 126 8583 
66 29 869 
METADATA
INFORMATION 0

RegionSpan 1 75 double
0.038273278624 0.10597390682 0.12693810463 0.046875 0.13441133499 0.064423523843 0.015625 0.049410589039 0.12979099154 
0.064423523843 0.079672180116 0.081189878285 0.046875 0.046875 0.069877125323 0.084143199027 0.11481983215 0.034938562661 
0.11375171691 0.068107798696 0.027063293383 0.038273278624 0.027063293383 0.022097086534 0.03125 0.066291257739 0.081189878285 
0.171875 0.21875 0.71072286367 0.63160574436 0.50919282436 0.4250459671 0.034938562661 0.034938562661 0.015625 
0.034938562661 0.071602746844 0.034938562661 0.079672180116 0.13441133499 0.068107798696 0.11048543453 0.091108620167 0.48260766268 
0.16828639805 0.08558165282 0.37173053622 0.20009763539 0.14823175967 0.066291257739 0.17539018393 0.049410589039 1.00657022 
0.2872621417 1.9759911299 0.32997986674 0.96128678322 0.058463398367 0.24705293775 0.14405538142 0.43357616663 0.034938562661 
0.11375171691 0.20372506976 0.56789940596 0.24506855011 0.022097086534 0.10126157105 0.96141374111 0.55770528316 0.28038060665 
0.43861463666 0.049410589039 0.25769409537 
METADATA
INFORMATION 0

POINT_DATA 76
FIELD FieldData 2
Scalar 1 76 float
0.596337 0.66036 0.600057 0.649037 0.55518 0.638916 0.634074 0.567513 0.623859 
0.569699 0.619528 0.618071 0.593377 0.449974 0.587046 0.556632 0.581639 0.542745 
0.576756 0.544438 0.572786 0.467743 0.562797 0.519858 0.558133 0.527256 0.552565 
0.454374 0.544244 0.47043 0.506264 0.451688 0.4927 0.487615 0.486786 0.43217 
0.465965 0.443102 0.465573 0.428018 0.460871 0.414611 0.440744 0.41135 0.439957 
0.189732 0.273221 0.190983 0.272094 0.188627 0.236251 0.184385 0.234361 0.049882 
0.0804608 0 0.0499104 0.000720447 0.0252895 0.000792013 0.00656606 0.0289047 0.0165632 
0.0402021 0.0173785 0.0423833 0.0425013 0.0794302 0.0436075 0.0843518 0.148945 0.244311 
0.567365 0.552362 0.446105 0.410263 
METADATA
INFORMATION 0

ttkMaskScalarField 1 76 char
0 0 0 0 0 0 0 0 0 
0 0 0 0 0 0 0 0 0 
0 0 0 0 0 0 0 0 0 
0 0 0 0 0 0 0 0 0 
0 0 0 0 0 0 0 0 0 
0 0 0 0 0 0 0 0 0 
0 0 0 0 0 0 0 0 0 
0 0 0 0 0 0 0 0 0 
0 0 0 0 
METADATA
INFORMATION 0

