# vtk DataFile Version 4.2
vtk output
ASCII
DATASET UNSTRUCTURED_GRID
POINTS 54 float
0.484375 1.125 0.734375 0.46875 1.17188 0.765625 0.46875 1.1875 0.703125 
0.515625 1.17188 0.8125 0.453125 1.1875 0.890625 0.46875 1.04688 0.796875 
0.46875 1.01562 0.796875 0.453125 1.10938 0.90625 0.484375 1.04688 0.953125 
0.484375 1.15625 0.578125 0.5 1.14062 0.5625 0.484375 1.0625 0.828125 
0.484375 1 0.828125 0.5 1.09375 0.53125 0.5 1.04688 0.53125 
0.484375 0.90625 0.859375 0.46875 0.921875 0.875 0.484375 0.90625 0.234375 
0.46875 1 0.046875 0.46875 0.96875 0.40625 0.484375 0.96875 0.40625 
0.46875 0.921875 0.359375 0.46875 0.921875 0.34375 0.46875 0.9375 0 
0.46875 0.890625 0 0.46875 0.578125 0.734375 0.421875 0.53125 0.734375 
0.484375 0.578125 0.75 0.53125 0.53125 0.734375 0.421875 0.53125 0.265625 
0.421875 0.53125 0 0.53125 0.53125 0.234375 0.53125 0.53125 0 
0.46875 0.453125 0 0.546875 0.015625 0.3125 0.21875 1.07812 0.734375 
0.3125 1.14062 0.859375 0.359375 1.125 0.84375 0.59375 1.09375 0.921875 
0.609375 1.10938 0.9375 0.609375 1.125 0.625 0.640625 1.125 0.609375 
0.328125 1.03125 0.71875 0.3125 1.04688 0.734375 0.546875 1.17188 0.53125 
0.5625 1.17188 0.515625 0.5625 0.890625 0.234375 0.578125 0.890625 0.234375 
0.40625 0.890625 0.265625 0.375 0.875 0.28125 0.375 1.04688 0.546875 
0.359375 1.04688 0.546875 0.453125 1.07812 0 0.4375 1.09375 0 

METADATA
INFORMATION 2
NAME L2_NORM_RANGE LOCATION vtkDataArray
DATA 2 0.630058 1.57511 
NAME L2_NORM_FINITE_RANGE LOCATION vtkDataArray
DATA 2 0.630058 1.57511 

CELLS 53 159
2 0 1 
2 0 2 
2 3 4 
2 5 6 
2 7 8 
2 9 10 
2 11 12 
2 13 14 
2 15 16 
2 17 18 
2 19 20 
2 21 22 
2 23 24 
2 25 26 
2 27 28 
2 29 30 
2 31 32 
2 33 34 
2 35 36 
2 37 36 
2 38 39 
2 40 41 
2 42 43 
2 44 45 
2 46 47 
2 48 49 
2 50 51 
2 52 53 
2 3 0 
2 36 41 
2 5 3 
2 41 43 
2 7 5 
2 43 34 
2 11 7 
2 34 45 
2 9 11 
2 45 39 
2 13 9 
2 39 47 
2 15 13 
2 47 51 
2 19 15 
2 51 49 
2 21 19 
2 49 31 
2 17 21 
2 31 27 
2 23 17 
2 27 29 
2 53 23 
2 29 25 
2 25 53 

CELL_TYPES 53
3
3
3
3
3
3
3
3
3
3
3
3
3
3
3
3
3
3
3
3
3
3
3
3
3
3
3
3
3
3
3
3
3
3
3
3
3
3
3
3
3
3
3
3
3
3
3
3
3
3
3
3
3

CELL_DATA 53
SCALARS SegmentationId int
LOOKUP_TABLE default
52 51 50 49 48 47 46 45 44 
43 42 41 40 39 38 37 36 0 
1 2 3 4 5 6 7 8 9 
10 35 12 34 14 33 15 32 11 
30 16 31 13 29 17 28 19 26 
18 25 23 27 22 20 24 21 
METADATA
INFORMATION 0

FIELD FieldData 4
upNodeId 1 53 int
0 2 3 5 7 9 11 13 15 
17 19 21 23 25 27 29 31 34 
36 36 39 41 43 45 47 49 51 
53 1 41 4 43 6 34 8 45 
12 39 10 47 14 51 16 49 20 
32 22 28 18 30 24 26 53 
METADATA
INFORMATION 0

downNodeId 1 53 int
1 1 4 6 8 10 12 14 16 
18 20 22 24 26 28 30 32 33 
35 37 38 40 42 44 46 48 50 
52 4 36 6 41 8 43 12 34 
10 45 14 39 16 47 20 51 22 
49 18 32 24 28 53 30 26 
METADATA
INFORMATION 0

RegionSize 1 53 int
34 30 26 4 18 8 10 7 4 
185 4 4 29 548 457 77 63 6388 
82074 18 10 14 8 0 5 10 5 
3 193 71357 90 20133 21 148051 14 107865 
35 45469 123 1065 413 1962 822 4827 564 
21232 638 40 168 3 771 64 8271 
METADATA
INFORMATION 0

RegionSpan 1 53 double
0.058463398367 0.071602746844 0.10126157105 0.03125 0.084143199027 0.027063293383 0.0625 0.046875 0.027063293383 
0.21021287143 0.015625 0.015625 0.046875 0.066291257739 0.068107798696 0.265625 0.234375 0.54329180717 
0.16828639805 0.051822263747 0.027063293383 0.034938562661 0.027063293383 0.022097086534 0.015625 0.038273278624 0.015625 
0.022097086534 0.09631896764 0.41280764341 0.13441133499 0.35971450806 0.12693810463 1.1385897398 0.09631896764 1.1740604639 
0.26700010896 0.42904782295 0.079672180116 0.73702979088 0.37824121118 0.41221579909 0.4576818347 0.31676772237 0.066291257739 
0.3804936111 0.12693810463 0.51986891031 0.23696485162 0.49063494802 0.15934436023 0.47341430187 0.89785987139 
METADATA
INFORMATION 0

POINT_DATA 54
FIELD FieldData 2
Scalar 1 54 float
0.618503 0.688799 0.648019 0.567395 0.641259 0.553071 0.598964 0.549583 0.594105 
0.544401 0.577794 0.547641 0.577162 0.530769 0.567541 0.498086 0.522395 0.392536 
0.498493 0.44671 0.47474 0.419158 0.447767 0.38727 0.440799 0.191075 0.272677 
0.190103 0.271906 0.190163 0.233648 0.189632 0.233071 0 0.0498972 0.00144489 
0.0337037 0.0107193 0.015022 0.0651409 0.016568 0.0423403 0.0181527 0.0439717 0.0300884 
0.0520144 0.0372885 0.0661904 0.0448881 0.0752976 0.0461261 0.0683255 0.330873 0.364643 

METADATA
INFORMATION 0

ttkMaskScalarField 1 54 char
0 0 0 0 0 0 0 0 0 
0 0 0 0 0 0 0 0 0 
0 0 0 0 0 0 0 0 0 
0 0 0 0 0 0 0 0 0 
0 0 0 0 0 0 0 0 0 
0 0 0 0 0 0 0 0 0 

METADATA
INFORMATION 0

