# vtk DataFile Version 4.2
vtk output
ASCII
DATASET UNSTRUCTURED_GRID
POINTS 54 float
0.46875 1.10938 0.796875 0.46875 1.17188 0.8125 0.46875 1.10938 0.765625 
0.453125 1.07812 0.75 0.453125 1.125 0.71875 0.5 1.125 0.6875 
0.484375 1.10938 0.671875 0.484375 1.14062 0.640625 0.46875 1.0625 0.546875 
0.484375 1.10938 0.90625 0.5 1.10938 0.921875 0.46875 0.953125 0.796875 
0.46875 0.90625 0.796875 0.46875 0.96875 0.03125 0.453125 1.01562 0 
0.484375 0.953125 0.875 0.484375 0.921875 0.890625 0.484375 1.03125 0.96875 
0.46875 1.01562 0.984375 0.46875 0.890625 0.578125 0.46875 0.859375 0.59375 
0.484375 0.9375 0.078125 0.484375 0.875 0.921875 0.484375 0.84375 0.921875 
0.46875 0.9375 0.40625 0.484375 0.921875 0.390625 0.484375 0.78125 0.953125 
0.46875 0.8125 0.96875 0.484375 0.578125 0.75 0.53125 0.53125 0.75 
0.46875 0.578125 0.703125 0.421875 0.53125 0.71875 0.421875 0.53125 0.21875 
0.421875 0.53125 0 0.53125 0.53125 0.296875 0.53125 0.53125 0 
0.46875 0.453125 0 0.4375 0.03125 0.5625 0.234375 1.0625 0.671875 
0.421875 1.17188 0.96875 0.703125 1.0625 0.59375 0.609375 1.01562 0.78125 
0.609375 1.03125 0.734375 0.375 1.10938 0.546875 0.359375 1.09375 0.546875 
0.40625 0.859375 0.234375 0.375 0.859375 0.234375 0.609375 1.09375 0.859375 
0.625 1.07812 0.859375 0.546875 0.859375 0.25 0.5625 0.859375 0.203125 
0.578125 1.03125 0.59375 0.609375 1.04688 0.59375 0.484375 0.875 0.234375 

METADATA
INFORMATION 2
NAME L2_NORM_RANGE LOCATION vtkDataArray
DATA 2 0.651958 1.57789 
NAME L2_NORM_FINITE_RANGE LOCATION vtkDataArray
DATA 2 0.651958 1.57789 

CELLS 53 159
2 0 1 
2 0 2 
2 3 4 
2 5 6 
2 7 8 
2 9 10 
2 11 12 
2 13 14 
2 15 16 
2 17 18 
2 19 20 
2 13 21 
2 22 23 
2 24 25 
2 26 27 
2 28 29 
2 30 31 
2 32 33 
2 34 35 
2 36 37 
2 38 39 
2 40 39 
2 41 42 
2 43 44 
2 45 46 
2 47 48 
2 49 50 
2 51 52 
2 3 0 
2 53 13 
2 39 44 
2 5 3 
2 44 48 
2 7 5 
2 48 42 
2 11 7 
2 42 37 
2 9 11 
2 37 52 
2 15 9 
2 52 46 
2 17 15 
2 46 50 
2 19 17 
2 50 32 
2 24 19 
2 32 34 
2 22 24 
2 34 28 
2 26 22 
2 28 30 
2 53 26 
2 30 53 

CELL_TYPES 53
3
3
3
3
3
3
3
3
3
3
3
3
3
3
3
3
3
3
3
3
3
3
3
3
3
3
3
3
3
3
3
3
3
3
3
3
3
3
3
3
3
3
3
3
3
3
3
3
3
3
3
3
3

CELL_DATA 53
SCALARS SegmentationId int
LOOKUP_TABLE default
52 51 50 49 48 47 46 45 44 
43 42 41 40 39 38 37 36 35 
34 0 1 2 3 4 5 6 7 
8 33 27 10 32 12 31 14 30 
11 28 9 29 16 26 13 25 15 
24 18 22 20 23 19 21 17 
METADATA
INFORMATION 0

FIELD FieldData 4
upNodeId 1 53 int
0 2 3 5 7 9 11 13 15 
17 19 21 22 24 26 28 30 32 
34 37 39 39 42 44 46 48 50 
52 1 14 44 4 48 6 42 8 
37 12 52 10 46 16 50 18 33 
20 35 25 29 23 31 27 53 
METADATA
INFORMATION 0

downNodeId 1 53 int
1 1 4 6 8 10 12 14 16 
18 20 14 23 25 27 29 31 33 
35 36 38 40 41 43 45 47 49 
51 4 53 39 6 44 8 48 12 
42 10 37 16 52 18 46 20 50 
25 33 23 35 27 29 53 31 
METADATA
INFORMATION 0

RegionSize 1 53 int
27 8 12 25 56 8 4 35 3 
12 6 13 7 3 18 456 554 95 
75 7073 19525 20503 20 0 14 10 8 
12 12 129 61866 123 13586 87 43490 83 
160217 10 149654 331 3739 247 11852 213 19903 
262 274 105 65 745 52 321 8286 
METADATA
INFORMATION 0

RegionSpan 1 53 double
0.064423523843 0.03125 0.056336738169 0.027063293383 0.12303137034 0.022097086534 0.046875 0.058463398367 0.034938562661 
0.027063293383 0.034938562661 0.058463398367 0.03125 0.027063293383 0.038273278624 0.066291257739 0.068107798696 0.21875 
0.296875 0.70381909609 0.3677688241 0.48134130239 0.049410589039 0.022097086534 0.03125 0.022097086534 0.049410589039 
0.034938562661 0.058463398367 0.22426094115 0.43357616663 0.091108620167 0.41043516994 0.051822263747 0.13441133499 0.24456994236 
1.0291171074 0.19136638939 1.0305395126 0.15934436023 0.46822887659 0.12203515321 0.19008633494 0.41546049714 0.35733115673 
0.17815241218 0.13441133499 0.51963400841 0.45794847608 0.098821178079 0.049410589039 0.72483831644 0.5550724864 
METADATA
INFORMATION 0

POINT_DATA 54
FIELD FieldData 2
Scalar 1 54 float
0.603165 0.664651 0.635937 0.59624 0.621322 0.556097 0.610979 0.539926 0.59182 
0.52883 0.556217 0.529578 0.551902 0.45083 0.532115 0.495623 0.519315 0.478296 
0.511088 0.465326 0.49472 0.492284 0.442132 0.478555 0.448459 0.471385 0.403387 
0.43495 0.189652 0.273209 0.190409 0.273091 0.185212 0.233991 0.188596 0.233504 
0 0.0499204 0.000958755 0.0284577 0.00133766 0.00809475 0.0439603 0.00914023 0.0382974 
0.0143614 0.0612302 0.0185146 0.0400979 0.0260015 0.0739039 0.0332663 0.0592564 0.389492 

METADATA
INFORMATION 0

ttkMaskScalarField 1 54 char
0 0 0 0 0 0 0 0 0 
0 0 0 0 0 0 0 0 0 
0 0 0 0 0 0 0 0 0 
0 0 0 0 0 0 0 0 0 
0 0 0 0 0 0 0 0 0 
0 0 0 0 0 0 0 0 0 

METADATA
INFORMATION 0

