# vtk DataFile Version 4.2
vtk output
ASCII
DATASET UNSTRUCTURED_GRID
POINTS 42 float
0.46875 1.0625 0.75 0.484375 1.09375 0.6875 0.46875 1.14062 0.765625 
0.46875 1.0625 0.859375 0.46875 1.0625 0.890625 0.46875 1.04688 0.84375 
0.46875 1.0625 0.59375 0.5 1.0625 0.625 0.484375 1.03125 0.546875 
0.484375 1.0625 0.921875 0.484375 1.01562 0.96875 0.484375 0.953125 0.65625 
0.484375 0.921875 0.640625 0.46875 0.859375 0.046875 0.484375 1 0 
0.46875 0.828125 0 0.4375 1.15625 0.71875 0.421875 1.15625 0.734375 
0.46875 0.578125 0.734375 0.421875 0.53125 0.703125 0.53125 0.53125 0.296875 
0.53125 0.53125 0.703125 0.53125 0.53125 0 0.421875 0.53125 0.21875 
0.421875 0.53125 0.03125 0.46875 0.453125 0 0.640625 0.046875 0.1875 
0.71875 1.01562 0.75 0.46875 1.1875 0.234375 0.265625 1.04688 0.921875 
0.3125 0.984375 0.734375 0.546875 0.84375 0.25 0.5625 0.859375 0.234375 
0.34375 0.96875 0.734375 0.59375 1.03125 0.890625 0.578125 1.03125 0.859375 
0.40625 0.84375 0.234375 0.390625 0.859375 0.203125 0.46875 1.01562 0.796875 
0.5 1.0625 0.65625 0.484375 0.84375 0.203125 0.484375 0.578125 0.78125 

METADATA
INFORMATION 2
NAME L2_NORM_RANGE LOCATION vtkDataArray
DATA 2 0.651958 1.48774 
NAME L2_NORM_FINITE_RANGE LOCATION vtkDataArray
DATA 2 0.651958 1.48774 

CELLS 41 123
2 0 1 
2 0 2 
2 3 4 
2 3 5 
2 6 7 
2 6 8 
2 9 10 
2 11 12 
2 13 14 
2 13 15 
2 16 17 
2 18 19 
2 20 21 
2 20 22 
2 23 24 
2 25 26 
2 27 28 
2 29 30 
2 31 32 
2 33 30 
2 34 35 
2 36 37 
2 38 0 
2 38 3 
2 39 6 
2 40 13 
2 41 20 
2 30 28 
2 9 38 
2 28 26 
2 39 9 
2 26 35 
2 11 39 
2 35 32 
2 16 11 
2 32 37 
2 40 16 
2 37 23 
2 18 40 
2 23 41 
2 41 18 

CELL_TYPES 41
3
3
3
3
3
3
3
3
3
3
3
3
3
3
3
3
3
3
3
3
3
3
3
3
3
3
3
3
3
3
3
3
3
3
3
3
3
3
3
3
3

CELL_DATA 41
SCALARS SegmentationId int
LOOKUP_TABLE default
40 39 38 37 36 35 34 33 32 
31 30 29 28 27 26 0 1 2 
3 4 5 6 25 24 23 20 17 
9 16 8 22 7 15 11 21 10 
19 12 14 13 18 
METADATA
INFORMATION 0

FIELD FieldData 4
upNodeId 1 41 int
0 2 3 5 6 8 9 11 13 
15 16 18 20 22 23 26 28 30 
32 30 35 37 1 4 7 14 21 
28 38 26 10 35 39 32 12 37 
17 24 40 41 19 
METADATA
INFORMATION 0

downNodeId 1 41 int
1 1 4 4 7 7 10 12 14 
14 17 19 21 21 24 25 27 29 
31 33 34 36 38 38 39 40 41 
30 10 28 39 26 12 35 17 32 
40 37 19 24 41 
METADATA
INFORMATION 0

RegionSize 1 41 int
34 13 19 13 20 15 15 3 142 
14 3 564 477 76 83 6430 68218 54210 
7 9 11 10 106 10 21 11 0 
8641 8 181202 113 157953 122 3313 1807 379 
137 32076 7845 22 94 
METADATA
INFORMATION 0

RegionSpan 1 41 double
0.071602746844 0.079672180116 0.03125 0.022097086534 0.044194173068 0.058463398367 0.066291257739 0.034938562661 0.14905300736 
0.056336738169 0.022097086534 0.0732877478 0.40625 0.296875 0.1875 0.47930818796 0.59825593233 0.203125 
0.027063293383 0.034938562661 0.034938562661 0.038273278624 0.066291257739 0.078125 0.069877125323 0.15780475736 0.48889023066 
0.56184858084 0.13441133499 1.1544538736 0.26608416438 1.1934472322 0.11048543453 0.64839041233 0.21763107181 0.17469280958 
0.6047500968 0.32997986674 0.59416103363 0.56789940596 0.049410589039 
METADATA
INFORMATION 0

POINT_DATA 42
FIELD FieldData 2
Scalar 1 42 float
0.612181 0.649288 0.635441 0.563526 0.628926 0.609708 0.557582 0.600866 0.595531 
0.559192 0.591192 0.523895 0.546486 0.394763 0.523236 0.425077 0.395335 0.41769 
0.189312 0.272497 0.188139 0.272474 0.232642 0.187769 0.23226 0 0.0499076 
0.00150417 0.0421927 0.00219177 0.040549 0.00732872 0.0606571 0.01619 0.01661 0.0589451 
0.0253414 0.0608774 0.561115 0.539603 0.390242 0.188071 
METADATA
INFORMATION 0

ttkMaskScalarField 1 42 char
0 0 0 0 0 0 0 0 0 
0 0 0 0 0 0 0 0 0 
0 0 0 0 0 0 0 0 0 
0 0 0 0 0 0 0 0 0 
0 0 0 0 0 0 
METADATA
INFORMATION 0

