# vtk DataFile Version 4.2
vtk output
ASCII
DATASET UNSTRUCTURED_GRID
POINTS 73 float
0.484375 1.29688 0.75 0.484375 1.25 0.75 0.5 1.34375 0.765625 
0.453125 1.3125 0.796875 0.484375 1.28125 0.828125 0.484375 1.25 0.671875 
0.484375 1.26562 0.6875 0.46875 1.25 0.640625 0.46875 1.25 0.625 
0.46875 1.25 0.59375 0.484375 1.0625 0.734375 0.484375 1.03125 0.734375 
0.484375 1.20312 0.90625 0.484375 1.17188 0.9375 0.5 1.23438 0.921875 
0.5 1.25 0.921875 0.484375 1.10938 0.84375 0.484375 1.07812 0.84375 
0.46875 0.953125 0.859375 0.484375 1.03125 0.890625 0.46875 0.9375 0.21875 
0.5 1.09375 0.015625 0.5 1.40625 0.8125 0.515625 1.42188 0.8125 
0.5 1.42188 0.734375 0.46875 1.46875 0.734375 0.46875 0.96875 0.9375 
0.46875 0.890625 0.9375 0.40625 1.26562 0.734375 0.390625 1.26562 0.75 
0.53125 1.29688 0.578125 0.53125 1.29688 0.59375 0.46875 0.84375 0.953125 
0.46875 0.890625 0.96875 0.484375 0.859375 0.03125 0.46875 0.859375 0.046875 
0.46875 0.578125 0.765625 0.421875 0.53125 0.75 0.484375 0.578125 0.75 
0.53125 0.53125 0.734375 0.53125 0.53125 0.203125 0.53125 0.53125 0.015625 
0.421875 0.53125 0.234375 0.421875 0.53125 0 0.515625 1.98438 0.265625 
0.5 1.39062 0 0.46875 0.453125 0 0.234375 0.171875 0.125 
0.75 1.17188 0.640625 0.671875 1.14062 0.78125 0.59375 1.09375 0.8125 
0.625 1.15625 0.84375 0.65625 1.14062 0.75 0.421875 0.890625 0.953125 
0.34375 0.90625 0.984375 0.59375 1.20312 0.859375 0.59375 1.23438 0.859375 
0.59375 1.15625 0.578125 0.609375 1.17188 0.5625 0.609375 1.23438 0.875 
0.390625 1.20312 0.9375 0.390625 1.21875 0.953125 0.53125 1.3125 0.546875 
0.546875 1.3125 0.546875 0.390625 0.9375 0.234375 0.375 0.9375 0.234375 
0.5625 0.9375 0.265625 0.59375 0.9375 0.28125 0.53125 1.25 0.625 
0.546875 1.23438 0.625 0.4375 1.23438 0.890625 0.421875 1.23438 0.875 
0.515625 1.29688 0.71875 
METADATA
INFORMATION 2
NAME L2_NORM_RANGE LOCATION vtkDataArray
DATA 2 0.316382 2.06741 
NAME L2_NORM_FINITE_RANGE LOCATION vtkDataArray
DATA 2 0.316382 2.06741 

CELLS 72 216
2 0 1 
2 0 2 
2 3 4 
2 5 6 
2 5 7 
2 8 9 
2 10 11 
2 12 13 
2 14 15 
2 16 17 
2 18 19 
2 20 21 
2 22 23 
2 24 25 
2 26 27 
2 28 29 
2 30 31 
2 32 33 
2 34 35 
2 36 37 
2 38 39 
2 40 41 
2 42 43 
2 44 45 
2 46 47 
2 48 49 
2 50 51 
2 52 49 
2 53 54 
2 55 56 
2 57 58 
2 59 56 
2 60 61 
2 62 63 
2 64 65 
2 66 67 
2 68 69 
2 70 71 
2 72 0 
2 8 5 
2 49 54 
2 72 8 
2 54 56 
2 10 72 
2 56 51 
2 3 10 
2 51 61 
2 12 3 
2 61 63 
2 14 12 
2 63 47 
2 16 14 
2 47 44 
2 18 16 
2 44 58 
2 22 18 
2 58 67 
2 24 22 
2 67 65 
2 26 24 
2 65 40 
2 28 26 
2 40 42 
2 30 28 
2 42 36 
2 32 30 
2 36 38 
2 20 32 
2 38 69 
2 34 20 
2 69 71 
2 71 34 

CELL_TYPES 72
3
3
3
3
3
3
3
3
3
3
3
3
3
3
3
3
3
3
3
3
3
3
3
3
3
3
3
3
3
3
3
3
3
3
3
3
3
3
3
3
3
3
3
3
3
3
3
3
3
3
3
3
3
3
3
3
3
3
3
3
3
3
3
3
3
3
3
3
3
3
3
3

CELL_DATA 72
SCALARS SegmentationId int
LOOKUP_TABLE default
71 70 69 68 67 66 65 64 63 
62 61 60 59 58 57 56 55 54 
53 52 51 50 49 48 0 1 2 
3 4 5 6 7 8 9 10 11 
12 13 47 45 15 44 17 28 18 
43 16 46 20 42 21 41 14 40 
26 39 19 37 23 36 22 35 29 
34 31 33 30 32 27 38 24 25 

METADATA
INFORMATION 0

FIELD FieldData 4
upNodeId 1 72 int
0 2 3 5 7 8 10 12 14 
16 18 20 22 24 26 28 30 32 
34 36 38 40 42 44 47 49 51 
49 54 56 58 56 61 63 65 67 
69 71 1 6 54 9 56 72 51 
11 61 4 63 13 47 15 45 17 
58 19 67 23 65 25 41 27 43 
29 37 31 39 33 69 21 71 35 

METADATA
INFORMATION 0

downNodeId 1 72 int
1 1 4 6 6 9 11 13 15 
17 19 21 23 25 27 29 31 33 
35 37 39 41 43 45 46 48 50 
52 53 55 57 59 60 62 64 66 
68 70 72 9 49 72 54 11 56 
4 51 13 61 15 63 17 47 19 
45 23 58 25 67 27 65 29 41 
31 43 33 37 21 39 35 69 71 

METADATA
INFORMATION 0

RegionSize 1 72 int
7 6 96 10 11 16 4 9 2 
3 20 206 2 9 6 9 0 14 
2 565 453 77 85 6608 6403 107914 21 
13 50 3 4 2 1 0 10 17 
3 4 59 48 8862 1 18829 87 16724 
44 103807 22 33780 22 35559 291 14456 515 
120669 46 11740 508 2485 53 19691 230 360 
136 69 277 47 946 2886 284 1287 6730 

METADATA
INFORMATION 0

RegionSpan 1 72 double
0.046875 0.051822263747 0.054126586765 0.022097086534 0.034938562661 0.03125 0.03125 0.044194173068 0.015625 
0.03125 0.08558165282 0.25816735625 0.022097086534 0.056336738169 0.078125 0.022097086534 0.015625 0.049410589039 
0.022097086534 0.068107798696 0.068107798696 0.1875 0.234375 0.65064573288 0.38685682416 0.1638763845 0.076546557248 
0.034938562661 0.08558165282 0.03125 0.027063293383 0.022097086534 0.022097086534 0.015625 0.015625 0.034938562661 
0.022097086534 0.022097086534 0.044194173068 0.049410589039 0.45150572062 0.11481983215 0.43103483319 0.23696485162 0.08558165282 
0.25958198309 0.26608416438 0.15780475736 0.44524395466 0.038273278624 1.2556512356 0.14823175967 1.8395742178 0.15780475736 
0.87010347843 0.45661371946 0.36643871665 0.079672180116 0.22371596098 0.49755260348 0.43638250232 0.36510378122 0.11375171691 
0.2025231421 0.53537005186 0.59148418903 0.022097086534 0.74033486843 0.67096596956 0.20372506976 0.27950850129 0.92544329166 

METADATA
INFORMATION 0

POINT_DATA 73
FIELD FieldData 2
Scalar 1 73 float
0.630982 0.669052 0.653948 0.566202 0.653016 0.620772 0.64885 0.647298 0.588922 
0.620934 0.573112 0.600616 0.563909 0.596172 0.561303 0.585258 0.536695 0.561173 
0.502078 0.555511 0.404821 0.535107 0.4994 0.525208 0.47252 0.506215 0.469742 
0.493385 0.459484 0.485136 0.453266 0.478813 0.44164 0.469743 0.396326 0.425259 
0.189202 0.27264 0.189781 0.271314 0.18498 0.236549 0.188593 0.232794 0.0499627 
0.0721861 0 0.0498794 0.00103447 0.0354608 0.0068056 0.0406109 0.0104678 0.0134227 
0.0366784 0.0148551 0.0389747 0.0149742 0.0628959 0.0150176 0.0227662 0.0479834 0.027325 
0.0491023 0.0326993 0.0806763 0.0369478 0.0759174 0.198491 0.236625 0.232851 0.258343 
0.5886 
METADATA
INFORMATION 0

ttkMaskScalarField 1 73 char
0 0 0 0 0 0 0 0 0 
0 0 0 0 0 0 0 0 0 
0 0 0 0 0 0 0 0 0 
0 0 0 0 0 0 0 0 0 
0 0 0 0 0 0 0 0 0 
0 0 0 0 0 0 0 0 0 
0 0 0 0 0 0 0 0 0 
0 0 0 0 0 0 0 0 0 
0 
METADATA
INFORMATION 0

