# vtk DataFile Version 4.2
vtk output
ASCII
DATASET UNSTRUCTURED_GRID
POINTS 38 float
0.46875 1.09375 0.671875 0.46875 1.14062 0.71875 0.46875 1.07812 0.625 
0.453125 1.10938 0.84375 0.484375 1.09375 0.8125 0.484375 1.04688 0.90625 
0.484375 0.859375 0.21875 0.46875 1 0 0.484375 0.875 0.921875 
0.484375 0.84375 0.921875 0.484375 0.578125 0.71875 0.53125 0.53125 0.75 
0.46875 0.578125 0.734375 0.421875 0.53125 0.75 0.421875 0.53125 0.265625 
0.421875 0.53125 0 0.53125 0.53125 0.265625 0.53125 0.53125 0 
0.46875 0.453125 0 0.375 0.015625 0.328125 0.71875 1.03125 0.71875 
0.640625 1.04688 0.78125 0.234375 1.03125 0.734375 0.484375 1.17188 0.21875 
0.546875 0.84375 0.25 0.5625 0.859375 0.1875 0.59375 1.09375 0.609375 
0.609375 1.01562 0.6875 0.59375 1.10938 0.84375 0.578125 1.04688 0.578125 
0.59375 1.0625 0.53125 0.40625 0.84375 0.234375 0.390625 0.859375 0.25 
0.59375 1.03125 0.859375 0.609375 1.04688 0.90625 0.59375 1.0625 0.921875 
0.59375 1.07812 0.953125 0.5 1 0.75 
METADATA
INFORMATION 2
NAME L2_NORM_RANGE LOCATION vtkDataArray
DATA 2 0.498533 1.55671 
NAME L2_NORM_FINITE_RANGE LOCATION vtkDataArray
DATA 2 0.498533 1.55671 

CELLS 37 111
2 0 1 
2 0 2 
2 3 4 
2 3 5 
2 6 7 
2 8 9 
2 10 11 
2 12 13 
2 14 15 
2 16 17 
2 18 19 
2 20 21 
2 22 23 
2 24 25 
2 26 27 
2 28 21 
2 29 30 
2 31 32 
2 33 34 
2 35 36 
2 37 0 
2 37 3 
2 21 23 
2 8 37 
2 23 27 
2 6 8 
2 27 34 
2 10 6 
2 34 19 
2 12 10 
2 19 30 
2 16 12 
2 30 36 
2 14 16 
2 36 32 
2 25 14 
2 32 25 

CELL_TYPES 37
3
3
3
3
3
3
3
3
3
3
3
3
3
3
3
3
3
3
3
3
3
3
3
3
3
3
3
3
3
3
3
3
3
3
3
3
3

CELL_DATA 37
SCALARS SegmentationId int
LOOKUP_TABLE default
36 35 34 33 32 31 30 29 28 
27 0 1 2 3 4 5 6 7 
8 9 26 25 11 19 12 23 14 
24 17 22 10 21 15 20 18 13 
16 
METADATA
INFORMATION 0

FIELD FieldData 4
upNodeId 1 37 int
0 2 3 5 6 8 10 12 14 
16 19 21 23 25 27 21 30 32 
34 36 1 4 23 37 27 9 34 
7 19 11 30 13 36 17 32 15 
25 
METADATA
INFORMATION 0

downNodeId 1 37 int
1 1 4 4 7 9 11 13 15 
17 18 20 22 24 26 28 29 31 
33 35 37 37 21 9 23 7 27 
11 34 13 19 17 30 15 36 25 
32 
METADATA
INFORMATION 0

RegionSize 1 37 int
28 22 69 41 157 6 452 552 95 
74 6257 52765 64932 15 18 22 5 10 
8 3 176 49 17265 897 26392 1149 62351 
7893 88455 17 130277 134 24700 154 5737 23067 
10006 
METADATA
INFORMATION 0

RegionSpan 1 37 double
0.066291257739 0.049410589039 0.046875 0.09375 0.26052081585 0.03125 0.0732877478 0.068107798696 0.265625 
0.265625 0.55485254526 0.10126157105 0.59003776312 0.066291257739 0.11158481985 0.10004881769 0.051822263747 0.027063293383 
0.051822263747 0.034938562661 0.12597277761 0.15149000287 0.59703040123 0.21309658885 0.50967210531 0.70329856873 0.22097086906 
0.57367372513 1.2052538395 0.022097086534 1.0886039734 0.47521582246 0.42216426134 0.109375 0.76386916637 0.36543798447 
0.18288592994 
METADATA
INFORMATION 0

POINT_DATA 38
FIELD FieldData 2
Scalar 1 38 float
0.601233 0.636385 0.632473 0.553241 0.627737 0.610263 0.393918 0.511544 0.457383 
0.480685 0.190077 0.272516 0.189854 0.27225 0.186242 0.233885 0.188126 0.233096 
0 0.0499002 0.000417374 0.0387924 0.00175115 0.0424698 0.0120004 0.0684491 0.0128353 
0.0446716 0.0153095 0.0176433 0.0526332 0.0225091 0.0601933 0.0243905 0.0484265 0.0324231 
0.0576347 0.537884 
METADATA
INFORMATION 0

ttkMaskScalarField 1 38 char
0 0 0 0 0 0 0 0 0 
0 0 0 0 0 0 0 0 0 
0 0 0 0 0 0 0 0 0 
0 0 0 0 0 0 0 0 0 
0 0 
METADATA
INFORMATION 0

