# vtk DataFile Version 4.2
vtk output
ASCII
DATASET UNSTRUCTURED_GRID
POINTS 84 float
0.484375 1.42188 0.71875 0.46875 1.375 0.703125 0.484375 1.46875 0.71875 
0.484375 1.375 0.671875 0.5 1.375 0.6875 0.453125 1.39062 0.8125 
0.484375 1.35938 0.859375 0.46875 1.20312 0.828125 0.46875 1.17188 0.8125 
0.453125 1.45312 0.8125 0.484375 1.25 0.859375 0.484375 1.1875 0.859375 
0.453125 1.32812 0.78125 0.453125 1.28125 0.78125 0.46875 1.21875 0.71875 
0.453125 1.21875 0.703125 0.484375 1.20312 0.5625 0.5 1.21875 0.5625 
0.46875 1.09375 0.4375 0.453125 1.15625 0.484375 0.46875 1.15625 0.578125 
0.453125 1.0625 0.671875 0.46875 0.96875 0.65625 0.453125 1.29688 0.625 
0.4375 1.32812 0.59375 0.515625 1.28125 0.578125 0.53125 1.28125 0.578125 
0.4375 1.17188 0.953125 0.453125 1.14062 0.96875 0.453125 1.0625 0.046875 
0.4375 1.09375 0 0.421875 1.1875 0.953125 0.515625 1.07812 0.90625 
0.515625 1.09375 0.921875 0.484375 0.984375 0.125 0.5 1.03125 0.09375 
0.484375 1.04688 0.390625 0.515625 1.14062 0.53125 0.515625 1.09375 0.53125 
0.46875 0.90625 0.0625 0.484375 0.890625 0 0.46875 0.96875 0.1875 
0.46875 0.96875 0.171875 0.46875 0.96875 0.234375 0.46875 0.859375 0.390625 
0.453125 0.828125 0.390625 0.484375 0.578125 0.6875 0.53125 0.53125 0.734375 
0.421875 0.53125 0.265625 0.421875 0.53125 0.75 0.53125 1.07812 0.984375 
0.5625 1.125 0.984375 0.53125 0.53125 0.28125 0.53125 0.53125 0 
0.421875 0.53125 0 0.46875 0.453125 0 0.75 0.03125 0.5 
0.6875 1.23438 0.890625 0.5625 0.953125 0.25 0.59375 0.9375 0.25 
0.359375 1.15625 0.890625 0.328125 1.14062 0.9375 0.375 0.96875 0.234375 
0.359375 0.96875 0.234375 0.515625 1.14062 0.984375 0.578125 1.14062 0.9375 
0.5 1.14062 0 0.484375 1.14062 0 0.40625 1.04688 0.046875 
0.40625 1.03125 0.03125 0.484375 1.15625 0 0.375 1.1875 0.78125 
0.421875 1.15625 0.828125 0.515625 1.14062 0.46875 0.53125 1.14062 0.484375 
0.484375 1.32812 0.796875 0.5 1.32812 0.765625 0.484375 0.953125 0.59375 
0.5 1.14062 0.953125 0.484375 1.09375 0.515625 0.46875 0.578125 0.796875 
0.5 1.17188 0.015625 0.46875 1.32812 0.765625 0.46875 0.96875 0.265625 

METADATA
INFORMATION 2
NAME L2_NORM_RANGE LOCATION vtkDataArray
DATA 2 0.651958 1.72541 
NAME L2_NORM_FINITE_RANGE LOCATION vtkDataArray
DATA 2 0.651958 1.72541 

CELLS 83 249
2 0 1 
2 0 2 
2 3 4 
2 5 6 
2 7 8 
2 5 9 
2 10 11 
2 12 13 
2 14 15 
2 16 17 
2 18 19 
2 16 20 
2 21 22 
2 23 24 
2 25 26 
2 27 28 
2 29 30 
2 27 31 
2 32 33 
2 34 35 
2 18 36 
2 37 38 
2 39 40 
2 41 42 
2 41 43 
2 44 45 
2 46 47 
2 48 49 
2 50 51 
2 52 53 
2 48 54 
2 55 56 
2 57 56 
2 58 59 
2 60 61 
2 62 63 
2 64 65 
2 66 67 
2 68 69 
2 70 67 
2 71 72 
2 73 74 
2 75 76 
2 3 0 
2 12 5 
2 77 16 
2 78 27 
2 79 18 
2 34 41 
2 80 48 
2 56 61 
2 67 81 
2 82 3 
2 82 12 
2 83 34 
2 61 63 
2 10 82 
2 63 59 
2 7 10 
2 59 69 
2 14 7 
2 69 65 
2 21 14 
2 65 81 
2 23 21 
2 81 72 
2 77 23 
2 72 74 
2 25 77 
2 74 52 
2 32 25 
2 52 80 
2 78 32 
2 80 46 
2 37 78 
2 46 50 
2 79 37 
2 50 44 
2 83 79 
2 44 76 
2 29 83 
2 76 39 
2 39 29 

CELL_TYPES 83
3
3
3
3
3
3
3
3
3
3
3
3
3
3
3
3
3
3
3
3
3
3
3
3
3
3
3
3
3
3
3
3
3
3
3
3
3
3
3
3
3
3
3
3
3
3
3
3
3
3
3
3
3
3
3
3
3
3
3
3
3
3
3
3
3
3
3
3
3
3
3
3
3
3
3
3
3
3
3
3
3
3
3

CELL_DATA 83
SCALARS SegmentationId int
LOOKUP_TABLE default
82 81 80 79 78 77 76 75 74 
73 72 71 70 69 68 67 66 65 
64 63 62 61 60 59 58 57 56 
55 54 53 52 0 1 2 3 4 
5 6 7 8 9 10 11 51 49 
44 39 43 34 31 12 17 50 46 
36 14 29 15 47 13 48 18 45 
16 42 22 41 19 28 20 40 23 
37 32 26 30 35 33 27 24 25 
21 38 
METADATA
INFORMATION 0

FIELD FieldData 4
upNodeId 1 83 int
0 2 3 5 7 9 10 12 14 
16 18 20 21 23 25 27 29 31 
32 34 36 37 39 41 43 44 46 
48 50 52 54 56 56 59 61 63 
65 67 69 67 72 74 76 1 6 
17 28 19 42 49 61 81 4 13 
35 63 82 59 11 69 8 65 15 
81 22 72 24 74 77 53 26 80 
33 47 78 51 38 45 79 76 83 
40 30 
METADATA
INFORMATION 0

downNodeId 1 83 int
1 1 4 6 8 6 11 13 15 
17 19 17 22 24 26 28 30 28 
33 35 19 38 40 42 42 45 47 
49 51 53 49 55 57 58 60 62 
64 66 68 70 71 73 75 4 13 
77 78 79 35 80 56 67 82 82 
83 61 11 63 8 59 15 69 22 
65 24 81 77 72 26 74 33 53 
78 80 38 47 79 51 83 45 30 
76 40 
METADATA
INFORMATION 0

RegionSize 1 83 int
15 4 12 44 34 6 13 4 3 
8 69 7 9 13 5 14 48 2 
10 47 37 6 60 11 7 3 470 
584 15 82 90 6544 341629 14 3 25 
21 5 14 0 8 4 16 42 17 
65 47 7 2 11 128728 8 94 0 
31 9302 53 3465 42 5471 24 3542 426 
1602 292 2622 31 2522 14 457 1049 54 
38 127 135 77 219 9607 1188 1575 321 
474 408 
METADATA
INFORMATION 0

RegionSpan 1 83 double
0.051822263747 0.046875 0.022097086534 0.064423523843 0.034938562661 0.0625 0.0625 0.046875 0.022097086534 
0.022097086534 0.079672180116 0.051822263747 0.09631896764 0.046875 0.015625 0.038273278624 0.058463398367 0.022097086534 
0.022097086534 0.058463398367 0.068107798696 0.046875 0.066291257739 0.015625 0.046875 0.034938562661 0.081189878285 
0.484375 0.056336738169 0.28125 0.265625 0.71209555864 1.2664927244 0.034938562661 0.058463398367 0.015625 
0.078125 0.015625 0.022097086534 0.015625 0.0732877478 0.022097086534 0.034938562661 0.066291257739 0.069877125323 
0.25194555521 0.069877125323 0.079672180116 0.066291257739 0.53537005186 1.2649496794 0.038273278624 0.10597390682 0.022097086534 
0.14235052466 0.72450143099 0.12303137034 0.23696485162 0.058463398367 0.30298000574 0.11048543453 0.92886650562 0.1638763845 
0.92570710182 0.2390165329 0.81639689207 0.34657925367 0.36106938124 0.32997986674 0.64233762026 0.3859090209 0.521510005 
0.079672180116 0.11048543453 0.42216426134 0.58337980509 0.058463398367 0.63584345579 0.2799448967 0.60110574961 0.23850527406 
0.82057285309 0.15780475736 
METADATA
INFORMATION 0

POINT_DATA 84
FIELD FieldData 2
Scalar 1 84 float
0.669238 0.703265 0.690983 0.632578 0.660344 0.600972 0.656768 0.578541 0.640802 
0.623608 0.584789 0.617531 0.594671 0.616886 0.575408 0.598014 0.538309 0.593516 
0.441835 0.574371 0.566864 0.530992 0.554186 0.508006 0.542121 0.50497 0.529637 
0.489022 0.52704 0.392006 0.521244 0.513023 0.454495 0.49731 0.413265 0.494494 
0.49019 0.447101 0.474155 0.381121 0.467286 0.413874 0.448975 0.437299 0.339155 
0.369937 0.188578 0.272927 0.18771 0.272584 0.189834 0.235061 0.186479 0.23387 
0.233755 0 0.0499048 0.00044183 0.0281826 0.0911209 0.0448308 0.0674419 0.0457718 
0.0813099 0.0466345 0.130922 0.0531374 0.110863 0.0866901 0.111392 0.0876414 0.136606 
0.162564 0.156679 0.182674 0.312152 0.370146 0.505873 0.452825 0.43941 0.186982 
0.142052 0.59427 0.401567 
METADATA
INFORMATION 0

ttkMaskScalarField 1 84 char
0 0 0 0 0 0 0 0 0 
0 0 0 0 0 0 0 0 0 
0 0 0 0 0 0 0 0 0 
0 0 0 0 0 0 0 0 0 
0 0 0 0 0 0 0 0 0 
0 0 0 0 0 0 0 0 0 
0 0 0 0 0 0 0 0 0 
0 0 0 0 0 0 0 0 0 
0 0 0 0 0 0 0 0 0 
0 0 0 
METADATA
INFORMATION 0

