# vtk DataFile Version 4.2
vtk output
ASCII
DATASET UNSTRUCTURED_GRID
POINTS 84 float
0.484375 1.15625 0.734375 0.5 1.26562 0.734375 0.484375 1.09375 0.734375 
0.46875 1.1875 0.84375 0.46875 1.20312 0.875 0.453125 1.20312 0.65625 
0.453125 1.26562 0.65625 0.46875 1.20312 0.625 0.46875 1.14062 0.640625 
0.484375 1.125 0.640625 0.46875 1.14062 0.828125 0.484375 1.39062 0.6875 
0.484375 1.42188 0.6875 0.484375 1.23438 0.78125 0.453125 1.28125 0.78125 
0.5 1.26562 0.609375 0.5 1.28125 0.609375 0.515625 1.10938 0.5625 
0.453125 1.125 0.515625 0.484375 1.17188 0.96875 0.484375 1.125 0.984375 
0.515625 1.39062 0.765625 0.5 1.42188 0.765625 0.484375 1.0625 0.046875 
0.46875 1.04688 0.046875 0.5 1.10938 0.015625 0.46875 0.9375 0.609375 
0.46875 0.890625 0.609375 0.46875 1.0625 0.46875 0.484375 1.04688 0.4375 
0.46875 0.890625 0.84375 0.46875 0.859375 0.859375 0.515625 1.07812 0.5625 
0.515625 1.14062 0.5625 0.515625 1.17188 0.5625 0.421875 1.28125 0.78125 
0.40625 1.28125 0.78125 0.46875 0.96875 0.53125 0.46875 0.9375 0.53125 
0.484375 0.96875 0.953125 0.46875 1 0.9375 0.46875 0.90625 0.953125 
0.484375 0.9375 0.984375 0.46875 1.01562 0.078125 0.484375 1 0.09375 
0.5 0.953125 0.984375 0.5 0.96875 0.984375 0.484375 1 0.953125 
0.5 1 0.96875 0.421875 0.53125 0.1875 0.421875 0.53125 0.734375 
0.53125 0.53125 0.21875 0.53125 0.53125 0.75 0.421875 0.53125 0 
0.53125 0.53125 0 0.53125 1.95312 0.328125 0.46875 1.3125 0 
0.46875 0.453125 0 0.265625 0.0625 0.015625 0.71875 1.1875 0.921875 
0.359375 1.23438 0.90625 0.609375 1.1875 0.859375 0.65625 1.1875 0.875 
0.359375 1.21875 0.890625 0.3125 1.09375 0.75 0.296875 1.125 0.796875 
0.34375 1.125 0.546875 0.328125 1.125 0.515625 0.390625 0.9375 0.234375 
0.375 0.9375 0.21875 0.5625 0.9375 0.265625 0.578125 0.921875 0.25 
0.46875 1.28125 0.984375 0.4375 1.26562 0.984375 0.46875 1.4375 0.734375 
0.421875 1.40625 0.734375 0.4375 1.125 0 0.4375 1.15625 0 
0.453125 1.1875 0.796875 0.46875 0.578125 0.734375 0.484375 0.578125 0.75 
0.46875 1.3125 0.6875 0.46875 0.9375 0.21875 0.515625 1.0625 0.609375 

METADATA
INFORMATION 2
NAME L2_NORM_RANGE LOCATION vtkDataArray
DATA 2 0.273326 2.05051 
NAME L2_NORM_FINITE_RANGE LOCATION vtkDataArray
DATA 2 0.273326 2.05051 

CELLS 83 249
2 0 1 
2 0 2 
2 3 4 
2 5 6 
2 5 7 
2 8 9 
2 3 10 
2 11 12 
2 13 14 
2 15 16 
2 17 18 
2 19 20 
2 21 22 
2 23 24 
2 23 25 
2 26 27 
2 28 29 
2 30 31 
2 17 32 
2 33 34 
2 35 36 
2 37 38 
2 39 40 
2 41 42 
2 43 44 
2 45 46 
2 47 48 
2 49 50 
2 51 52 
2 49 53 
2 51 54 
2 55 56 
2 57 58 
2 59 60 
2 61 62 
2 63 60 
2 64 65 
2 66 67 
2 68 69 
2 70 71 
2 72 73 
2 74 75 
2 76 77 
2 11 0 
2 8 5 
2 78 3 
2 43 23 
2 28 17 
2 79 49 
2 80 51 
2 60 62 
2 81 11 
2 81 8 
2 82 43 
2 83 28 
2 62 65 
2 15 81 
2 65 67 
2 13 15 
2 67 58 
2 78 13 
2 58 55 
2 26 78 
2 55 73 
2 19 26 
2 73 71 
2 21 19 
2 71 69 
2 30 21 
2 69 75 
2 83 30 
2 75 80 
2 33 83 
2 80 79 
2 35 33 
2 79 77 
2 37 35 
2 77 45 
2 41 37 
2 45 82 
2 39 41 
2 82 47 
2 47 39 

CELL_TYPES 83
3
3
3
3
3
3
3
3
3
3
3
3
3
3
3
3
3
3
3
3
3
3
3
3
3
3
3
3
3
3
3
3
3
3
3
3
3
3
3
3
3
3
3
3
3
3
3
3
3
3
3
3
3
3
3
3
3
3
3
3
3
3
3
3
3
3
3
3
3
3
3
3
3
3
3
3
3
3
3
3
3
3
3

CELL_DATA 83
SCALARS SegmentationId int
LOOKUP_TABLE default
82 81 80 79 78 77 76 75 74 
73 72 71 70 69 68 67 66 65 
64 63 62 61 60 59 58 57 56 
55 54 53 52 51 0 1 2 3 
4 5 6 7 8 9 10 50 48 
49 40 43 29 28 12 46 47 31 
38 13 26 14 44 15 45 11 27 
21 39 18 42 17 41 16 37 19 
25 22 36 24 35 20 34 23 32 
30 33 
METADATA
INFORMATION 0

FIELD FieldData 4
upNodeId 1 83 int
0 2 3 5 7 8 10 11 13 
15 17 19 21 23 25 26 28 30 
32 33 35 37 39 41 43 45 47 
49 51 53 54 55 58 60 62 60 
65 67 69 71 73 75 77 1 6 
4 24 18 50 52 62 12 9 44 
29 65 81 67 16 58 14 56 78 
73 27 71 20 69 22 75 31 80 
83 79 34 77 36 46 38 82 42 
48 40 
METADATA
INFORMATION 0

downNodeId 1 83 int
1 1 4 6 6 9 4 12 14 
16 18 20 22 24 24 27 29 31 
18 34 36 38 40 42 44 46 48 
50 52 50 52 56 57 59 61 63 
64 66 68 70 72 74 76 12 9 
78 44 29 79 80 60 81 81 82 
83 62 16 65 14 67 78 58 27 
56 20 73 22 71 31 69 83 75 
34 80 36 79 38 77 42 46 40 
82 48 
METADATA
INFORMATION 0

RegionSize 1 83 int
32 6 92 9 8 7 21 4 23 
5 70 10 6 16 28 11 14 11 
6 4 3 18 5 14 5 0 2 
555 464 68 69 6133 6422 116148 12 10 
16 6 11 14 5 11 4 85 4 
31 10 0 9 2 223 9 39 127 
5 9113 98 32255 27 168666 13 36839 557 
100326 5 5538 84 10471 96 5054 129 10582 
36 30 235 5468 215 6183 237 37 190 
247 551 
METADATA
INFORMATION 0

RegionSpan 1 83 double
0.11048543453 0.0625 0.034938562661 0.0625 0.034938562661 0.022097086534 0.049410589039 0.03125 0.056336738169 
0.015625 0.079672180116 0.049410589039 0.034938562661 0.022097086534 0.058463398367 0.046875 0.038273278624 0.034938562661 
0.03125 0.03125 0.015625 0.03125 0.038273278624 0.046875 0.027063293383 0.015625 0.022097086534 
0.546875 0.53125 0.1875 0.21875 0.72247678041 0.44055849314 0.36275583506 0.049410589039 0.022097086534 
0.058463398367 0.034938562661 0.022097086534 0.027063293383 0.034938562661 0.056336738169 0.03125 0.2390165329 0.066291257739 
0.049410589039 0.058463398367 0.11481983215 0.55087822676 0.53537005186 0.30217310786 0.079672180116 0.17815241218 0.16086922586 
0.14823175967 0.373041749 0.09631896764 0.28298079967 0.17539018393 1.1759305 0.058463398367 1.934599638 0.31289038062 
0.95504415035 0.42933222651 0.8229496479 0.30014646053 0.20610789955 0.50823301077 0.69842177629 0.29439756274 0.83062714338 
0.091108620167 0.022097086534 0.27643448114 0.93515330553 0.40293115377 1.0070551634 0.42647948861 0.76642179489 0.064423523843 
0.73719537258 0.03125 
METADATA
INFORMATION 0

POINT_DATA 84
FIELD FieldData 2
Scalar 1 84 float
0.617365 0.686795 0.641424 0.552805 0.63468 0.59217 0.632818 0.625822 0.590544 
0.620272 0.60683 0.562783 0.597215 0.53847 0.583438 0.543819 0.582649 0.480909 
0.577894 0.49452 0.533788 0.489518 0.528109 0.463016 0.527903 0.52774 0.494838 
0.518681 0.480644 0.517658 0.484951 0.50859 0.506255 0.47562 0.502681 0.465058 
0.489218 0.455889 0.485724 0.438293 0.481006 0.445518 0.479616 0.45292 0.47872 
0.407561 0.443076 0.418243 0.440302 0.190099 0.272221 0.189408 0.271665 0.240538 
0.233102 0.050096 0.0953002 0 0.0498915 0.000447296 0.0369303 0.0112606 0.036959 
0.0112703 0.0135783 0.0381236 0.0186418 0.0412562 0.0289718 0.0925552 0.0360796 0.0702285 
0.038748 0.064568 0.082791 0.111127 0.227501 0.272213 0.536463 0.189545 0.189147 
0.559413 0.408642 0.477114 
METADATA
INFORMATION 0

ttkMaskScalarField 1 84 char
0 0 0 0 0 0 0 0 0 
0 0 0 0 0 0 0 0 0 
0 0 0 0 0 0 0 0 0 
0 0 0 0 0 0 0 0 0 
0 0 0 0 0 0 0 0 0 
0 0 0 0 0 0 0 0 0 
0 0 0 0 0 0 0 0 0 
0 0 0 0 0 0 0 0 0 
0 0 0 0 0 0 0 0 0 
0 0 0 
METADATA
INFORMATION 0

