# vtk DataFile Version 4.2
vtk output
ASCII
DATASET UNSTRUCTURED_GRID
POINTS 52 float
0.484375 1.10938 0.75 0.484375 1.125 0.71875 0.484375 1.10938 0.875 
0.46875 1.09375 0.90625 0.5 1.125 0.765625 0.46875 1.01562 0.640625 
0.46875 1.14062 0.65625 0.46875 1.09375 0.609375 0.484375 1.10938 0.859375 
0.46875 1.125 0.796875 0.453125 1.14062 0.8125 0.5 1.09375 0.5625 
0.46875 1.03125 0.515625 0.46875 0.984375 0.046875 0.484375 1 0.015625 
0.46875 0.96875 0.046875 0.484375 0.953125 0.09375 0.484375 0.921875 0.09375 
0.46875 0.578125 0.734375 0.421875 0.53125 0.734375 0.53125 0.53125 0.21875 
0.53125 0.53125 0.71875 0.421875 0.53125 0.28125 0.421875 0.53125 0 
0.359375 1.09375 0.703125 0.34375 1.14062 0.703125 0.53125 0.53125 0 
0.546875 1.98438 0.3125 0.484375 1.21875 0 0.46875 0.453125 0 
0.25 0.046875 0.078125 0.25 1.0625 0.609375 0.4375 1.14062 0.984375 
0.71875 1.04688 0.71875 0.546875 1.15625 0.984375 0.46875 1.15625 0.984375 
0.328125 1.01562 0.75 0.3125 1.01562 0.765625 0.453125 1.17188 0.53125 
0.5 1.17188 0.515625 0.40625 0.859375 0.25 0.390625 0.875 0.28125 
0.359375 1.03125 0.5625 0.359375 1.04688 0.53125 0.546875 0.859375 0.234375 
0.578125 0.859375 0.25 0.578125 1.125 0.921875 0.59375 1.125 0.9375 
0.453125 1.04688 0.6875 0.46875 1.10938 0.828125 0.484375 0.578125 0.75 
0.46875 0.859375 0.21875 
METADATA
INFORMATION 2
NAME L2_NORM_RANGE LOCATION vtkDataArray
DATA 2 0.266084 2.08194 
NAME L2_NORM_FINITE_RANGE LOCATION vtkDataArray
DATA 2 0.266084 2.08194 

CELLS 51 153
2 0 1 
2 2 3 
2 0 4 
2 5 6 
2 5 7 
2 2 8 
2 9 10 
2 11 12 
2 13 14 
2 13 15 
2 16 17 
2 18 19 
2 20 21 
2 22 23 
2 24 25 
2 20 26 
2 27 28 
2 29 30 
2 31 32 
2 33 34 
2 35 32 
2 36 37 
2 38 39 
2 40 41 
2 42 43 
2 44 45 
2 46 47 
2 9 0 
2 48 5 
2 49 2 
2 16 13 
2 50 20 
2 32 34 
2 49 9 
2 51 16 
2 34 39 
2 48 49 
2 39 37 
2 11 48 
2 37 43 
2 51 11 
2 43 30 
2 24 51 
2 30 27 
2 18 24 
2 27 47 
2 50 18 
2 47 45 
2 22 50 
2 45 41 
2 41 22 

CELL_TYPES 51
3
3
3
3
3
3
3
3
3
3
3
3
3
3
3
3
3
3
3
3
3
3
3
3
3
3
3
3
3
3
3
3
3
3
3
3
3
3
3
3
3
3
3
3
3
3
3
3
3
3
3

CELL_DATA 51
SCALARS SegmentationId int
LOOKUP_TABLE default
50 49 48 47 46 45 44 43 42 
41 40 39 38 37 36 35 34 0 
1 2 3 4 5 6 7 8 9 
33 31 32 28 25 11 30 27 12 
23 14 22 13 29 16 21 10 24 
19 26 18 20 17 15 
METADATA
INFORMATION 0

FIELD FieldData 4
upNodeId 1 51 int
0 2 4 5 7 8 9 11 13 
15 16 18 20 22 24 26 27 30 
32 34 32 37 39 41 43 45 47 
1 6 3 14 21 34 10 17 39 
49 37 48 43 12 30 51 28 25 
47 19 45 50 41 23 
METADATA
INFORMATION 0

downNodeId 1 51 int
1 3 1 6 6 3 10 12 14 
14 17 19 21 23 25 21 28 29 
31 33 35 36 38 40 42 44 46 
10 48 49 17 50 32 49 51 34 
48 39 12 37 51 43 25 30 19 
28 50 47 23 45 41 
METADATA
INFORMATION 0

RegionSize 1 51 int
23 23 11 34 27 11 8 20 17 
5 7 547 460 87 7 62 6012 6606 
36893 42600 8 21 8 16 5 11 0 
58 8 47 37 27 1225 58 115 7600 
15 9894 170 119151 2085 98642 7586 63271 781 
72086 118 18105 55 12633 16940 
METADATA
INFORMATION 0

RegionSpan 1 51 double
0.034938562661 0.038273278624 0.027063293383 0.12597277761 0.084143199027 0.015625 0.027063293383 0.084143199027 0.038273278624 
0.015625 0.03125 0.066291257739 0.5 0.28125 0.049410589039 0.21875 0.82930338383 0.46796810627 
0.42647948861 0.33475446701 0.034938562661 0.022097086534 0.049410589039 0.038273278624 0.034938562661 0.034938562661 0.022097086534 
0.051822263747 0.058463398367 0.049410589039 0.058463398367 0.53537005186 0.11048543453 0.034938562661 0.15702930093 0.47134697437 
0.15467961133 0.34938561916 0.14149039984 0.24105076492 0.41721969843 1.1033064127 0.54910260439 1.9740751982 0.52802330256 
1.0636482239 0.022097086534 0.73719537258 0.47521582246 0.1907274276 0.34516751766 
METADATA
INFORMATION 0

POINT_DATA 52
FIELD FieldData 2
Scalar 1 52 float
0.596368 0.650764 0.5714 0.625801 0.624854 0.548457 0.603432 0.601721 0.594703 
0.567459 0.589033 0.522223 0.558111 0.473012 0.533412 0.512232 0.433361 0.472942 
0.190475 0.2724 0.190105 0.272381 0.187551 0.240188 0.205578 0.237855 0.233383 
0.0503301 0.0765297 0 0.0499091 0.000680008 0.0346762 0.00108416 0.0350971 0.00754138 
0.00904647 0.037833 0.0127607 0.0363323 0.0138597 0.0808238 0.0146709 0.0479429 0.0231239 
0.0630046 0.0252955 0.055186 0.543084 0.545658 0.188451 0.395243 
METADATA
INFORMATION 0

ttkMaskScalarField 1 52 char
0 0 0 0 0 0 0 0 0 
0 0 0 0 0 0 0 0 0 
0 0 0 0 0 0 0 0 0 
0 0 0 0 0 0 0 0 0 
0 0 0 0 0 0 0 0 0 
0 0 0 0 0 0 0 
METADATA
INFORMATION 0

