# vtk DataFile Version 4.2
vtk output
ASCII
DATASET UNSTRUCTURED_GRID
POINTS 54 float
0.46875 1.14062 0.671875 0.46875 1.10938 0.640625 0.46875 1.0625 0.703125 
0.453125 1.10938 0.84375 0.484375 1.10938 0.796875 0.46875 1.07812 0.875 
0.46875 1.26562 0.71875 0.46875 1.29688 0.71875 0.46875 1.03125 0.5 
0.46875 1.01562 0.484375 0.484375 0.859375 0.21875 0.484375 1 0 
0.484375 0.84375 0.890625 0.484375 0.875 0.921875 0.484375 0.921875 0.9375 
0.46875 0.890625 0.96875 0.484375 0.90625 0.015625 0.484375 0.828125 0.015625 
0.484375 0.578125 0.71875 0.53125 0.53125 0.75 0.46875 0.578125 0.734375 
0.421875 0.53125 0.75 0.421875 0.53125 0.265625 0.421875 0.53125 0 
0.53125 0.53125 0.265625 0.53125 0.53125 0 0.46875 0.453125 0 
0.421875 0.0625 0.203125 0.234375 1.04688 0.75 0.34375 1.125 0.625 
0.703125 1.0625 0.890625 0.65625 1.04688 0.734375 0.640625 1.04688 0.765625 
0.578125 1.07812 0.5625 0.59375 1.07812 0.609375 0.40625 0.859375 0.234375 
0.390625 0.859375 0.25 0.59375 1.10938 0.609375 0.609375 1.09375 0.609375 
0.359375 1.125 0.609375 0.34375 0.984375 0.765625 0.34375 1.01562 0.765625 
0.59375 1.14062 0.84375 0.609375 1.07812 0.8125 0.375 1.14062 0.59375 
0.375 1.125 0.59375 0.546875 0.859375 0.25 0.5625 0.875 0.1875 
0.59375 1.04688 0.859375 0.59375 1.07812 0.859375 0.609375 1.0625 0.890625 
0.59375 1.09375 0.9375 0.515625 1.07812 0.75 0.484375 1.21875 0.203125 

METADATA
INFORMATION 2
NAME L2_NORM_RANGE LOCATION vtkDataArray
DATA 2 0.472382 1.55812 
NAME L2_NORM_FINITE_RANGE LOCATION vtkDataArray
DATA 2 0.472382 1.55812 

CELLS 53 159
2 0 1 
2 0 2 
2 3 4 
2 3 5 
2 6 7 
2 8 9 
2 10 11 
2 12 13 
2 14 15 
2 16 17 
2 18 19 
2 20 21 
2 22 23 
2 24 25 
2 26 27 
2 28 29 
2 30 31 
2 32 31 
2 33 34 
2 35 36 
2 37 38 
2 39 29 
2 40 41 
2 42 43 
2 44 45 
2 46 47 
2 48 49 
2 50 51 
2 52 0 
2 52 3 
2 31 53 
2 29 53 
2 6 52 
2 53 41 
2 8 6 
2 41 38 
2 12 8 
2 38 43 
2 14 12 
2 43 45 
2 10 14 
2 45 51 
2 16 10 
2 51 27 
2 18 16 
2 27 49 
2 20 18 
2 49 34 
2 24 20 
2 34 36 
2 22 24 
2 36 47 
2 47 22 

CELL_TYPES 53
3
3
3
3
3
3
3
3
3
3
3
3
3
3
3
3
3
3
3
3
3
3
3
3
3
3
3
3
3
3
3
3
3
3
3
3
3
3
3
3
3
3
3
3
3
3
3
3
3
3
3
3
3

CELL_DATA 53
SCALARS SegmentationId int
LOOKUP_TABLE default
52 51 50 49 48 47 46 45 44 
43 42 41 40 39 0 1 2 3 
4 5 6 7 8 9 10 11 12 
13 38 37 16 15 27 26 36 20 
35 19 33 21 32 22 34 25 31 
14 30 24 29 17 28 18 23 
METADATA
INFORMATION 0

FIELD FieldData 4
upNodeId 1 53 int
0 2 3 5 6 8 10 12 14 
16 18 20 22 24 27 29 31 31 
34 36 38 29 41 43 45 47 49 
51 1 4 53 53 52 41 7 38 
9 43 13 45 15 51 11 27 17 
49 19 34 21 36 25 47 23 
METADATA
INFORMATION 0

downNodeId 1 53 int
1 1 4 4 7 9 11 13 15 
17 19 21 23 25 26 28 30 32 
33 35 37 39 40 42 44 46 48 
50 52 52 31 29 7 53 9 41 
13 38 15 43 11 45 17 51 19 
27 21 49 25 34 23 36 47 
METADATA
INFORMATION 0

RegionSize 1 53 int
26 30 72 42 3 7 146 9 10 
13 455 553 88 74 6431 49854 26866 7 
8 8 10 1 10 9 0 11 2 
9 175 41 40465 13681 25 4264 73 6011 
947 7219 270 24963 839 55622 21 86832 8375 
103126 15 35596 82 14159 133 12808 23738 
METADATA
INFORMATION 0

RegionSpan 1 53 double
0.044194173068 0.084143199027 0.056336738169 0.046875 0.03125 0.022097086534 0.2600518167 0.044194173068 0.046875 
0.078125 0.0732877478 0.068107798696 0.265625 0.265625 0.44276961684 0.18355219066 0.1638763845 0.034938562661 
0.049410589039 0.022097086534 0.022097086534 0.022097086534 0.03125 0.071602746844 0.015625 0.066291257739 0.03125 
0.058463398367 0.11048543453 0.11692679673 0.58421623707 0.45446997881 0.19578069448 0.61436259747 0.32059818506 0.3179217279 
0.43357616663 0.20372506976 0.091108620167 0.32400688529 0.72146224976 0.40864676237 0.20846350491 1.2776244879 0.7759193182 
1.2213513851 0.022097086534 0.25 0.47521582246 0.46718490124 0.109375 0.18355219066 0.3795299232 
METADATA
INFORMATION 0

POINT_DATA 54
FIELD FieldData 2
Scalar 1 54 float
0.60882 0.649942 0.645844 0.556686 0.642225 0.614992 0.54063 0.565034 0.531578 
0.558726 0.396614 0.517562 0.456488 0.491821 0.440401 0.465352 0.395532 0.418199 
0.190064 0.272485 0.189792 0.27222 0.187263 0.234119 0.188809 0.233136 0 
0.0498957 0.000811391 0.0386187 0.000991724 0.0301001 0.00706274 0.0106644 0.0546761 0.0121104 
0.0590384 0.0124012 0.0424283 0.0134314 0.0176998 0.0419076 0.0181465 0.0430304 0.0217662 
0.0450495 0.0227576 0.0686283 0.0259069 0.0512197 0.0261337 0.0483547 0.543364 0.0416217 

METADATA
INFORMATION 0

ttkMaskScalarField 1 54 char
0 0 0 0 0 0 0 0 0 
0 0 0 0 0 0 0 0 0 
0 0 0 0 0 0 0 0 0 
0 0 0 0 0 0 0 0 0 
0 0 0 0 0 0 0 0 0 
0 0 0 0 0 0 0 0 0 

METADATA
INFORMATION 0

