# vtk DataFile Version 4.2
vtk output
ASCII
DATASET UNSTRUCTURED_GRID
POINTS 86 float
0.46875 1.28125 0.71875 0.46875 1.3125 0.765625 0.484375 1.3125 0.6875 
0.515625 1.17188 0.9375 0.484375 1.10938 0.953125 0.5 1.28125 0.59375 
0.484375 1.125 0.5625 0.46875 1.125 0.78125 0.46875 1.10938 0.796875 
0.4375 1.26562 0.859375 0.453125 1.26562 0.875 0.4375 1.26562 0.828125 
0.46875 1.01562 0.75 0.46875 0.9375 0.765625 0.515625 1.1875 0.9375 
0.484375 0.875 0.859375 0.46875 1.01562 0.875 0.484375 0.875 0.734375 
0.484375 0.921875 0.71875 0.453125 1.125 0.890625 0.453125 1.09375 0.875 
0.484375 1.10938 0.5 0.46875 1.09375 0.484375 0.46875 0.984375 0.109375 
0.453125 1.03125 0.0625 0.484375 1.0625 0.640625 0.5 1.01562 0.625 
0.46875 0.859375 0.609375 0.484375 0.875 0.59375 0.484375 1.0625 0.578125 
0.484375 1.01562 0.578125 0.453125 1.01562 0.40625 0.5 1 0.375 
0.484375 0.921875 0.5625 0.484375 0.875 0.546875 0.484375 0.96875 0.125 
0.484375 1.01562 0 0.46875 0.90625 0.015625 0.484375 0.96875 0.359375 
0.46875 0.953125 0.328125 0.46875 0.828125 0.359375 0.46875 0.84375 0.390625 
0.5 1.07812 0.390625 0.515625 1.07812 0.40625 0.4375 1.07812 0.984375 
0.421875 1.09375 0.984375 0.46875 0.578125 0.734375 0.421875 0.53125 0.734375 
0.484375 0.578125 0.75 0.53125 0.53125 0.734375 0.421875 0.53125 0.265625 
0.421875 0.53125 0 0.53125 0.53125 0.234375 0.53125 0.53125 0 
0.46875 0.453125 0 0.546875 0.0625 0.296875 0.25 1.1875 0.59375 
0.359375 1.28125 0.578125 0.609375 1.1875 0.578125 0.625 1.20312 0.546875 
0.484375 1.28125 0.984375 0.59375 1.29688 0.984375 0.609375 1.15625 0.921875 
0.609375 1.15625 0.953125 0.3125 1.07812 0.734375 0.3125 1.09375 0.75 
0.375 1.28125 0.578125 0.390625 0.9375 0.25 0.375 0.9375 0.265625 
0.453125 1.28125 0.953125 0.4375 1.28125 0.96875 0.5625 0.9375 0.234375 
0.59375 0.921875 0.234375 0.515625 1.10938 0.484375 0.53125 1.09375 0.46875 
0.4375 1.14062 0.96875 0.40625 1.125 0.9375 0.53125 1.23438 0.84375 
0.53125 1.21875 0.84375 0.453125 1.125 0 0.453125 1.15625 0.015625 
0.46875 1.26562 0.796875 0.453125 1.26562 0.78125 0.453125 1.26562 0.828125 
0.453125 1.15625 0.859375 0.46875 0.953125 0.1875 
METADATA
INFORMATION 2
NAME L2_NORM_RANGE LOCATION vtkDataArray
DATA 2 0.625391 1.73304 
NAME L2_NORM_FINITE_RANGE LOCATION vtkDataArray
DATA 2 0.625391 1.73304 

CELLS 85 255
2 0 1 
2 0 2 
2 3 4 
2 5 6 
2 7 8 
2 9 10 
2 9 11 
2 12 13 
2 3 14 
2 15 16 
2 17 18 
2 19 20 
2 21 22 
2 23 24 
2 25 26 
2 27 28 
2 29 30 
2 31 32 
2 33 34 
2 23 35 
2 36 37 
2 38 39 
2 40 41 
2 42 43 
2 44 45 
2 46 47 
2 48 49 
2 50 51 
2 52 53 
2 54 55 
2 56 57 
2 58 59 
2 60 61 
2 62 63 
2 64 65 
2 66 57 
2 67 68 
2 69 70 
2 71 72 
2 73 74 
2 75 76 
2 77 78 
2 79 80 
2 81 82 
2 7 0 
2 83 9 
2 19 3 
2 36 23 
2 57 59 
2 83 7 
2 84 19 
2 85 36 
2 59 61 
2 12 83 
2 61 65 
2 17 12 
2 65 63 
2 5 17 
2 63 55 
2 84 5 
2 55 70 
2 15 84 
2 70 72 
2 25 15 
2 72 68 
2 21 25 
2 68 74 
2 29 21 
2 74 76 
2 27 29 
2 76 52 
2 33 27 
2 52 48 
2 31 33 
2 48 50 
2 38 31 
2 50 46 
2 85 38 
2 46 78 
2 42 85 
2 78 80 
2 40 42 
2 80 44 
2 82 40 
2 44 82 

CELL_TYPES 85
3
3
3
3
3
3
3
3
3
3
3
3
3
3
3
3
3
3
3
3
3
3
3
3
3
3
3
3
3
3
3
3
3
3
3
3
3
3
3
3
3
3
3
3
3
3
3
3
3
3
3
3
3
3
3
3
3
3
3
3
3
3
3
3
3
3
3
3
3
3
3
3
3
3
3
3
3
3
3
3
3
3
3
3
3

CELL_DATA 85
SCALARS SegmentationId int
LOOKUP_TABLE default
84 83 82 81 80 79 78 77 76 
75 74 73 72 71 70 69 68 67 
66 65 64 63 62 61 60 59 58 
57 56 0 1 2 3 4 5 6 
7 8 9 10 11 12 13 14 55 
51 54 45 16 52 47 39 17 32 
18 50 20 48 19 53 15 33 22 
49 23 44 21 46 24 42 25 43 
35 40 34 41 36 38 30 31 26 
37 27 28 29 
METADATA
INFORMATION 0

FIELD FieldData 4
upNodeId 1 85 int
0 2 3 5 7 9 11 12 14 
15 17 19 21 23 25 27 29 31 
33 35 36 38 40 42 44 46 48 
50 52 55 57 59 61 63 65 57 
68 70 72 74 76 78 80 82 1 
10 4 24 59 8 20 37 61 83 
65 13 63 18 55 6 70 84 72 
16 68 26 74 22 76 30 53 28 
49 34 51 32 47 39 78 85 80 
43 45 41 82 
METADATA
INFORMATION 0

downNodeId 1 85 int
1 1 4 6 8 10 10 13 4 
16 18 20 22 24 26 28 30 32 
34 24 37 39 41 43 45 47 49 
51 53 54 56 58 60 62 64 66 
67 69 71 73 75 77 79 81 8 
83 20 37 57 83 84 85 59 13 
61 18 65 6 63 84 55 16 70 
26 72 22 68 30 74 28 76 34 
53 32 49 39 51 85 47 43 78 
41 80 82 45 
METADATA
INFORMATION 0

RegionSize 1 85 int
23 33 16 41 13 4 8 12 1 
12 12 8 21 78 6 11 4 21 
4 5 20 5 9 6 1 547 455 
81 65 6263 135825 5 48 3 6 0 
12 0 12 5 6 0 3 2 230 
10 50 17 5120 188 3 47 62244 59 
49946 158 48363 19 26668 45 133372 60 13994 
408 5965 62 14444 197 4939 34 833 61 
63 754 6 281 115 503 1853 1668 2299 
74 2593 515 2230 
METADATA
INFORMATION 0

RegionSpan 1 85 double
0.056336738169 0.046875 0.071602746844 0.16010861099 0.022097086534 0.022097086534 0.03125 0.079672180116 0.015625 
0.14235052466 0.049410589039 0.034938562661 0.027063293383 0.068107798696 0.051822263747 0.027063293383 0.046875 0.058463398367 
0.049410589039 0.027063293383 0.11158481985 0.038273278624 0.034938562661 0.022097086534 0.022097086534 0.066291257739 0.068107798696 
0.265625 0.234375 0.49681603909 0.14490029216 0.038273278624 0.11048543453 0.03125 0.022097086534 0.015625 
0.022097086534 0.022097086534 0.034938562661 0.027063293383 0.046875 0.015625 0.034938562661 0.022097086534 0.16828639805 
0.034938562661 0.091108620167 0.11481983215 0.27863365412 0.14905300736 0.044194173068 0.19825902581 0.4485218823 0.26238837838 
0.41868004203 0.14235052466 0.36510378122 0.43018436432 1.2770510912 0.29728591442 1.3959693909 0.28298079967 0.83238875866 
0.28811076283 0.22152261436 0.14823175967 0.30014646053 0.091108620167 0.48613590002 0.20610789955 0.92873507738 0.079672180116 
0.51986891031 0.18487749994 0.49063494802 0.0732877478 0.47341430187 0.17328962684 0.65289318562 0.24054381251 0.83414673805 
0.25387620926 0.97202068567 0.6079711318 0.27687570453 
METADATA
INFORMATION 0

POINT_DATA 86
FIELD FieldData 2
Scalar 1 86 float
0.6326 0.700797 0.673249 0.54806 0.605536 0.515106 0.602659 0.56971 0.595822 
0.552192 0.593806 0.587774 0.534041 0.576381 0.571056 0.50731 0.548808 0.517025 
0.539261 0.513563 0.538423 0.480816 0.53083 0.42426 0.529362 0.484038 0.513893 
0.469819 0.502444 0.470946 0.495301 0.434062 0.493023 0.466852 0.491064 0.460312 
0.41882 0.451501 0.423267 0.447623 0.360221 0.385391 0.361778 0.38495 0.305019 
0.329296 0.191436 0.272359 0.18983 0.272301 0.189869 0.234494 0.189303 0.233462 
0 0.0498897 0.000739674 0.0390684 0.00802896 0.0396646 0.0119392 0.0446691 0.0121732 
0.0493777 0.0145906 0.0478269 0.0146885 0.0320504 0.0808488 0.0327658 0.059547 0.0401084 
0.0706809 0.111318 0.142223 0.155076 0.181727 0.193521 0.220965 0.223411 0.259087 
0.326428 0.349215 0.540669 0.511112 0.405955 
METADATA
INFORMATION 0

ttkMaskScalarField 1 86 char
0 0 0 0 0 0 0 0 0 
0 0 0 0 0 0 0 0 0 
0 0 0 0 0 0 0 0 0 
0 0 0 0 0 0 0 0 0 
0 0 0 0 0 0 0 0 0 
0 0 0 0 0 0 0 0 0 
0 0 0 0 0 0 0 0 0 
0 0 0 0 0 0 0 0 0 
0 0 0 0 0 0 0 0 0 
0 0 0 0 0 
METADATA
INFORMATION 0

