# vtk DataFile Version 4.2
vtk output
ASCII
DATASET UNSTRUCTURED_GRID
POINTS 82 float
0.484375 1.29688 0.75 0.484375 1.35938 0.75 0.46875 1.34375 0.625 
0.484375 1.35938 0.6875 0.4375 1.32812 0.765625 0.46875 1.35938 0.59375 
0.484375 1.125 0.734375 0.484375 1.09375 0.734375 0.46875 1.28125 0.875 
0.484375 1.20312 0.9375 0.5 1.25 0.5625 0.484375 1.17188 0.515625 
0.484375 1.34375 0.578125 0.484375 1.35938 0.578125 0.484375 1.35938 0.90625 
0.5 1.34375 0.921875 0.484375 1.1875 0.828125 0.484375 1.10938 0.84375 
0.46875 0.921875 0.859375 0.484375 1.10938 0.890625 0.484375 1.01562 0.765625 
0.484375 0.953125 0.765625 0.453125 1.15625 0.796875 0.453125 1.125 0.796875 
0.484375 1.01562 0.84375 0.484375 0.953125 0.84375 0.484375 1.04688 0.09375 
0.5 1.14062 0.015625 0.46875 1.07812 0.640625 0.46875 1.0625 0.625 
0.40625 1.32812 0.75 0.390625 1.34375 0.75 0.515625 1.46875 0.796875 
0.515625 1.48438 0.8125 0.46875 0.96875 0.921875 0.46875 0.9375 0.9375 
0.484375 1.04688 0.40625 0.46875 1.03125 0.375 0.46875 0.84375 0.953125 
0.46875 0.90625 0.984375 0.546875 1.46875 0.734375 0.515625 1.5 0.734375 
0.484375 1.03125 0.109375 0.46875 0.96875 0.03125 0.46875 0.90625 0 
0.46875 0.9375 0.03125 0.46875 0.90625 0.046875 0.46875 0.578125 0.765625 
0.421875 0.53125 0.75 0.484375 0.578125 0.75 0.53125 0.53125 0.734375 
0.53125 0.53125 0.203125 0.53125 0.53125 0.015625 0.421875 0.53125 0.234375 
0.421875 0.53125 0 0.53125 1.32812 0 0.53125 1.40625 0 
0.46875 0.453125 0 0.390625 0.0625 0.046875 0.765625 1.20312 0.734375 
0.671875 1.17188 0.78125 0.59375 1.14062 0.828125 0.609375 1.20312 0.84375 
0.65625 1.17188 0.75 0.3125 1.10938 0.75 0.296875 1.125 0.734375 
0.515625 1.01562 0.9375 0.578125 1 0.953125 0.390625 0.953125 0.25 
0.359375 0.96875 0.234375 0.578125 0.96875 0.265625 0.59375 0.96875 0.265625 
0.390625 1.35938 0.671875 0.390625 1.375 0.671875 0.53125 1.32812 0.625 
0.53125 1.28125 0.625 0.4375 1.25 0.890625 0.421875 1.28125 0.859375 
0.5 1.29688 0.875 0.515625 1.32812 0.875 0.5 1.35938 0.703125 
0.484375 0.984375 0.1875 
METADATA
INFORMATION 2
NAME L2_NORM_RANGE LOCATION vtkDataArray
DATA 2 0.398361 1.76901 
NAME L2_NORM_FINITE_RANGE LOCATION vtkDataArray
DATA 2 0.398361 1.76901 

CELLS 81 243
2 0 1 
2 2 3 
2 0 4 
2 2 5 
2 6 7 
2 8 9 
2 10 11 
2 12 13 
2 14 15 
2 16 17 
2 18 19 
2 20 21 
2 22 23 
2 24 25 
2 26 27 
2 28 29 
2 30 31 
2 32 33 
2 34 35 
2 36 37 
2 38 39 
2 40 41 
2 26 42 
2 43 44 
2 45 46 
2 47 48 
2 49 50 
2 51 52 
2 53 54 
2 55 56 
2 57 58 
2 59 60 
2 61 62 
2 63 60 
2 64 65 
2 66 67 
2 68 69 
2 70 71 
2 72 73 
2 74 75 
2 76 77 
2 78 79 
2 6 0 
2 80 2 
2 43 26 
2 60 65 
2 80 6 
2 45 43 
2 65 62 
2 12 80 
2 81 45 
2 62 58 
2 8 12 
2 58 67 
2 14 8 
2 67 55 
2 22 14 
2 55 71 
2 16 22 
2 71 69 
2 20 16 
2 69 73 
2 10 20 
2 73 51 
2 24 10 
2 51 53 
2 28 24 
2 53 49 
2 18 28 
2 49 47 
2 30 18 
2 47 75 
2 32 30 
2 75 77 
2 34 32 
2 77 79 
2 36 34 
2 79 81 
2 38 36 
2 81 40 
2 40 38 

CELL_TYPES 81
3
3
3
3
3
3
3
3
3
3
3
3
3
3
3
3
3
3
3
3
3
3
3
3
3
3
3
3
3
3
3
3
3
3
3
3
3
3
3
3
3
3
3
3
3
3
3
3
3
3
3
3
3
3
3
3
3
3
3
3
3
3
3
3
3
3
3
3
3
3
3
3
3
3
3
3
3
3
3
3
3

CELL_DATA 81
SCALARS SegmentationId int
LOOKUP_TABLE default
80 79 78 77 76 75 74 73 72 
71 70 69 68 67 66 65 64 63 
62 61 60 59 58 57 56 55 54 
53 52 51 0 1 2 3 4 5 
6 7 8 9 10 11 50 49 38 
13 48 30 15 25 29 14 45 12 
47 16 44 23 40 18 43 17 41 
19 46 26 39 27 37 28 42 24 
36 20 35 21 34 22 33 31 32 

METADATA
INFORMATION 0

FIELD FieldData 4
upNodeId 1 81 int
0 2 4 5 6 8 10 12 14 
16 18 20 22 24 26 28 30 32 
34 36 38 40 42 43 45 47 49 
51 53 55 58 60 62 60 65 67 
69 71 73 75 77 79 1 3 27 
65 7 44 62 80 46 58 13 67 
9 56 15 71 23 69 17 73 21 
52 11 54 25 50 29 48 19 75 
31 77 33 79 35 81 37 41 39 

METADATA
INFORMATION 0

downNodeId 1 81 int
1 3 1 3 7 9 11 13 15 
17 19 21 23 25 27 29 31 33 
35 37 39 41 27 44 46 48 50 
52 54 56 57 59 61 63 64 66 
68 70 72 74 76 78 7 80 44 
60 80 46 65 13 81 62 9 58 
15 67 23 56 17 71 21 69 11 
73 25 52 29 54 19 50 31 48 
33 75 35 77 37 79 39 81 41 

METADATA
INFORMATION 0

RegionSize 1 81 int
6 62 17 5 3 15 49 0 7 
10 22 21 2 7 109 16 6 5 
5 5 12 13 22 18 2 560 459 
77 95 1586 6751 124731 11 10 6 42 
15 21 0 3 3 4 135 33 47 
9213 4 1 7631 84 8 190547 136 83055 
77 10914 200 50567 10 1441 7 8989 73 
10426 54 39 217 338 16 31 392 5393 
119 501 47 2333 209 4508 600 531 467 

METADATA
INFORMATION 0

RegionSpan 1 81 double
0.0625 0.066291257739 0.058463398367 0.034938562661 0.03125 0.10126157105 0.092438749969 0.015625 0.027063293383 
0.079672180116 0.1907274276 0.0625 0.03125 0.0625 0.12303137034 0.022097086534 0.022097086534 0.022097086534 
0.034938562661 0.038273278624 0.069877125323 0.044194173068 0.022097086534 0.069877125323 0.034938562661 0.068107798696 0.068107798696 
0.1875 0.234375 0.078125 0.401109308 0.109375 0.066291257739 0.034938562661 0.027063293383 0.066291257739 
0.038273278624 0.015625 0.015625 0.046875 0.046875 0.034938562661 0.17258375883 0.08558165282 0.10126157105 
0.38081431389 0.23696485162 0.03125 0.34018033743 0.12693810463 0.1638763845 1.4085050821 0.30378472805 1.3173273802 
0.08558165282 1.0091137886 0.23280726373 0.45123529434 0.054126586765 0.23644915223 0.18288592994 0.59784770012 0.31054073572 
0.97540557384 0.36643871665 0.11375171691 0.21309658885 0.521510005 0.26882266998 0.022097086534 0.42533305287 0.71976828575 
0.18421603739 0.25863978267 0.51751548052 0.10597390682 0.52174401283 0.76928335428 0.58358901739 0.73321050406 0.66676837206 

METADATA
INFORMATION 0

POINT_DATA 82
FIELD FieldData 2
Scalar 1 82 float
0.625426 0.664039 0.591975 0.658756 0.658705 0.627979 0.579655 0.60754 0.556777 
0.604395 0.52797 0.602125 0.569213 0.591312 0.55076 0.589266 0.533822 0.571561 
0.509505 0.567177 0.533191 0.56433 0.534834 0.557704 0.524195 0.555409 0.427449 
0.54598 0.510794 0.543017 0.487425 0.523696 0.48232 0.506982 0.480398 0.506691 
0.471458 0.493553 0.446393 0.479231 0.428755 0.472609 0.461566 0.412119 0.46047 
0.411529 0.436191 0.189855 0.271792 0.189519 0.271418 0.18562 0.236667 0.186037 
0.23267 0.0527367 0.0755165 0 0.049902 0.00072743 0.0361537 0.00543998 0.0382905 
0.0107031 0.0155977 0.0373639 0.0192351 0.0517204 0.0440098 0.0843387 0.055772 0.0808387 
0.0910442 0.114338 0.219288 0.270829 0.256349 0.278124 0.280631 0.31504 0.577869 
0.410142 
METADATA
INFORMATION 0

ttkMaskScalarField 1 82 char
0 0 0 0 0 0 0 0 0 
0 0 0 0 0 0 0 0 0 
0 0 0 0 0 0 0 0 0 
0 0 0 0 0 0 0 0 0 
0 0 0 0 0 0 0 0 0 
0 0 0 0 0 0 0 0 0 
0 0 0 0 0 0 0 0 0 
0 0 0 0 0 0 0 0 0 
0 0 0 0 0 0 0 0 0 
0 
METADATA
INFORMATION 0

