# vtk DataFile Version 4.2
vtk output
ASCII
DATASET UNSTRUCTURED_GRID
POINTS 74 float
0.46875 1.23438 0.796875 0.46875 1.28125 0.8125 0.484375 1.26562 0.765625 
0.5 1.21875 0.6875 0.515625 1.26562 0.671875 0.53125 1.21875 0.9375 
0.5 1.17188 0.953125 0.484375 1.01562 0.71875 0.484375 1 0.734375 
0.484375 1.23438 0.625 0.5 1.1875 0.53125 0.46875 1.42188 0.703125 
0.453125 1.4375 0.6875 0.484375 1.125 0.671875 0.46875 1.09375 0.65625 
0.484375 1.0625 0.046875 0.5 1.14062 0 0.46875 1.3125 0.90625 
0.46875 1.29688 0.90625 0.46875 0.890625 0.59375 0.484375 0.953125 0.625 
0.46875 1.04688 0.078125 0.46875 0.921875 0.578125 0.46875 0.890625 0.890625 
0.484375 0.953125 0.90625 0.46875 1.04688 0.953125 0.46875 1 0.953125 
0.46875 0.953125 0.578125 0.453125 0.96875 0.578125 0.484375 1.01562 0.375 
0.484375 1 0.359375 0.46875 0.859375 0.046875 0.46875 1 0 
0.484375 0.875 0.515625 0.484375 0.96875 0.5 0.46875 0.953125 0.984375 
0.46875 0.90625 0.984375 0.484375 0.9375 0.484375 0.5 0.96875 0.46875 
0.484375 0.921875 0.40625 0.46875 0.90625 0.4375 0.46875 0.953125 0.328125 
0.484375 0.96875 0.3125 0.484375 0.96875 0.234375 0.46875 0.953125 0.25 
0.484375 0.578125 0.78125 0.53125 0.53125 0.71875 0.46875 0.578125 0.734375 
0.421875 0.53125 0.734375 0.53125 0.53125 0.25 0.53125 0.53125 0 
0.421875 0.53125 0.203125 0.421875 0.53125 0 0.46875 0.453125 0 
0.28125 0 0.15625 0.234375 1.1875 0.5625 0.34375 1.32812 0.609375 
0.625 1.1875 0.90625 0.640625 1.1875 0.921875 0.390625 1.34375 0.5625 
0.578125 1.14062 0.84375 0.578125 1.15625 0.859375 0.5625 0.9375 0.25 
0.59375 0.953125 0.234375 0.5625 1.23438 0.5 0.578125 1.23438 0.5 
0.390625 0.9375 0.234375 0.359375 0.953125 0.265625 0.4375 1.14062 0 
0.421875 1.17188 0 0.40625 1.21875 0.796875 0.40625 1.17188 0.796875 
0.484375 1 0.640625 0.484375 0.953125 0.28125 
METADATA
INFORMATION 2
NAME L2_NORM_RANGE LOCATION vtkDataArray
DATA 2 0.321738 1.66243 
NAME L2_NORM_FINITE_RANGE LOCATION vtkDataArray
DATA 2 0.321738 1.66243 

CELLS 73 219
2 0 1 
2 0 2 
2 3 4 
2 5 6 
2 7 8 
2 9 10 
2 11 12 
2 13 14 
2 15 16 
2 17 18 
2 19 20 
2 15 21 
2 19 22 
2 23 24 
2 25 26 
2 27 28 
2 29 30 
2 31 32 
2 33 34 
2 35 36 
2 37 38 
2 39 40 
2 41 42 
2 43 44 
2 45 46 
2 47 48 
2 49 50 
2 51 52 
2 53 54 
2 55 56 
2 57 58 
2 59 56 
2 60 61 
2 62 63 
2 64 65 
2 66 67 
2 68 69 
2 70 71 
2 3 0 
2 31 15 
2 72 19 
2 56 58 
2 7 3 
2 43 31 
2 58 54 
2 11 7 
2 73 43 
2 54 65 
2 13 11 
2 65 61 
2 17 13 
2 61 63 
2 5 17 
2 63 67 
2 9 5 
2 67 51 
2 72 9 
2 51 49 
2 23 72 
2 49 47 
2 25 23 
2 47 45 
2 27 25 
2 45 69 
2 29 27 
2 69 71 
2 33 29 
2 71 39 
2 35 33 
2 39 37 
2 41 35 
2 37 73 
2 73 41 

CELL_TYPES 73
3
3
3
3
3
3
3
3
3
3
3
3
3
3
3
3
3
3
3
3
3
3
3
3
3
3
3
3
3
3
3
3
3
3
3
3
3
3
3
3
3
3
3
3
3
3
3
3
3
3
3
3
3
3
3
3
3
3
3
3
3
3
3
3
3
3
3
3
3
3
3
3
3

CELL_DATA 73
SCALARS SegmentationId int
LOOKUP_TABLE default
72 71 70 69 68 67 66 65 64 
63 62 61 60 59 58 57 56 55 
54 53 52 51 50 49 48 47 46 
45 0 1 2 3 4 5 6 7 
8 9 44 37 35 11 43 30 12 
41 25 10 39 15 38 13 36 14 
42 16 40 22 21 23 34 24 33 
19 32 17 31 18 29 27 28 20 
26 
METADATA
INFORMATION 0

FIELD FieldData 4
upNodeId 1 73 int
0 2 3 5 7 9 11 13 15 
17 19 21 22 23 25 27 29 31 
33 35 37 39 41 43 45 47 49 
51 54 56 58 56 61 63 65 67 
69 71 1 16 20 58 4 32 54 
8 44 65 12 61 14 63 18 67 
6 52 10 50 72 48 24 46 26 
69 28 71 30 40 34 38 36 73 
42 
METADATA
INFORMATION 0

downNodeId 1 73 int
1 1 4 6 8 10 12 14 16 
18 20 16 20 24 26 28 30 32 
34 36 38 40 42 44 46 48 50 
52 53 55 57 59 60 62 64 66 
68 70 4 32 72 56 8 44 58 
12 73 54 14 65 18 61 6 63 
10 67 72 52 24 50 26 48 28 
46 30 69 34 71 36 40 42 38 
73 
METADATA
INFORMATION 0

RegionSize 1 73 int
9 19 19 27 6 60 5 8 17 
14 19 10 4 12 9 3 5 18 
14 13 3 19 5 8 461 555 68 
86 6810 106291 5 46 13 11 0 13 
2 7 157 111 4 6943 176 36 223546 
99 25 118996 18 1275 154 17033 52 4502 
76 21312 478 214 203 102 335 4 365 
2836 316 2466 94 6387 413 110 366 279 
37 
METADATA
INFORMATION 0

RegionSpan 1 73 double
0.049410589039 0.046875 0.051822263747 0.058463398367 0.022097086534 0.10597390682 0.027063293383 0.038273278624 0.092438749969 
0.015625 0.071602746844 0.038273278624 0.034938562661 0.066291257739 0.046875 0.022097086534 0.022097086534 0.14823175967 
0.095043167472 0.046875 0.038273278624 0.038273278624 0.027063293383 0.027063293383 0.091108620167 0.066291257739 0.25 
0.203125 0.51467716694 0.18421603739 0.022097086534 0.068107798696 0.022097086534 0.038273278624 0.015625 0.046875 
0.034938562661 0.046875 0.11481983215 0.20372506976 0.12001790106 0.45339432359 0.20610789955 0.21763107181 1.4579054117 
0.4068505168 0.049410589039 1.3152872324 0.29892385006 0.3677688241 0.3005528748 0.6573651433 0.11692679673 0.23644915223 
0.31638213992 0.43103483319 0.23489525914 0.11899645627 0.2733258605 0.49063494802 0.16828639805 0.049410589039 0.38654115796 
0.98325830698 0.21309658885 0.79702818394 0.19887378812 0.47030991316 0.47547262907 0.079672180116 0.65625 0.20372506976 
0.049410589039 
METADATA
INFORMATION 0

POINT_DATA 74
FIELD FieldData 2
Scalar 1 74 float
0.645942 0.692359 0.676731 0.590519 0.62492 0.527358 0.593925 0.560552 0.589334 
0.521153 0.580631 0.547241 0.578672 0.545595 0.57093 0.479677 0.561456 0.530932 
0.559392 0.494396 0.543139 0.527754 0.524704 0.479685 0.503682 0.462959 0.494285 
0.447364 0.476921 0.434144 0.468939 0.416097 0.46622 0.430209 0.457279 0.415187 
0.441026 0.395149 0.432279 0.391493 0.431104 0.403127 0.429429 0.407391 0.429172 
0.190169 0.27257 0.190131 0.272414 0.189117 0.232061 0.187002 0.231981 0 
0.0499037 0.000710164 0.0346556 0.00955453 0.035661 0.00956501 0.0345352 0.0584332 0.0345786 
0.0707916 0.0346786 0.0579484 0.0392345 0.0778742 0.19318 0.231962 0.247171 0.270463 
0.490151 0.401879 
METADATA
INFORMATION 0

ttkMaskScalarField 1 74 char
0 0 0 0 0 0 0 0 0 
0 0 0 0 0 0 0 0 0 
0 0 0 0 0 0 0 0 0 
0 0 0 0 0 0 0 0 0 
0 0 0 0 0 0 0 0 0 
0 0 0 0 0 0 0 0 0 
0 0 0 0 0 0 0 0 0 
0 0 0 0 0 0 0 0 0 
0 0 
METADATA
INFORMATION 0

