# vtk DataFile Version 4.2
vtk output
ASCII
DATASET UNSTRUCTURED_GRID
POINTS 94 float
0.453125 1.39062 0.65625 0.46875 1.375 0.703125 0.4375 1.375 0.65625 
0.4375 1.34375 0.8125 0.484375 1.35938 0.875 0.46875 1.17188 0.671875 
0.46875 1.14062 0.671875 0.46875 1.125 0.78125 0.46875 1.15625 0.796875 
0.4375 1.51562 0.734375 0.4375 1.54688 0.734375 0.484375 1.46875 0.796875 
0.484375 1.5 0.796875 0.484375 1.14062 0.75 0.484375 1.42188 0.765625 
0.484375 1.23438 0.53125 0.453125 1.20312 0.5 0.484375 1.10938 0.90625 
0.484375 1.125 0.921875 0.46875 1.10938 0.875 0.484375 0.921875 0.6875 
0.46875 0.953125 0.703125 0.484375 1.03125 0.765625 0.484375 1 0.78125 
0.46875 1.07812 0.078125 0.46875 1.14062 0.03125 0.515625 1.48438 0.71875 
0.53125 1.51562 0.703125 0.484375 1.0625 0.546875 0.484375 1.04688 0.546875 
0.46875 1.04688 0.09375 0.484375 0.921875 0.53125 0.46875 0.9375 0.5 
0.453125 1.46875 0.828125 0.453125 1.48438 0.84375 0.46875 1.10938 0.453125 
0.5 1.07812 0.40625 0.46875 1.01562 0.015625 0.46875 0.96875 0 
0.46875 0.953125 0.953125 0.453125 0.953125 0.96875 0.484375 1 0.21875 
0.46875 1 0.25 0.46875 0.578125 0.734375 0.421875 0.53125 0.75 
0.53125 0.53125 0.265625 0.53125 0.53125 0.75 0.421875 1.23438 0.9375 
0.421875 1.23438 0.953125 0.421875 0.53125 0.234375 0.421875 0.53125 0 
0.53125 0.53125 0 0.46875 0.453125 0 0.265625 0 0.140625 
0.765625 1.21875 0.78125 0.328125 0.96875 0.984375 0.40625 0.953125 0.984375 
0.546875 1.09375 0.515625 0.578125 1.125 0.515625 0.40625 0.921875 0.46875 
0.359375 0.921875 0.4375 0.609375 1.28125 0.859375 0.640625 1.26562 0.875 
0.65625 1.17188 0.78125 0.65625 1.21875 0.78125 0.578125 0.96875 0.234375 
0.59375 0.96875 0.203125 0.390625 0.96875 0.234375 0.375 0.96875 0.25 
0.5 1.53125 0.75 0.484375 1.54688 0.75 0.453125 1.53125 0.765625 
0.453125 1.34375 0.921875 0.46875 1.35938 0.921875 0.40625 1.14062 0.84375 
0.390625 1.14062 0.875 0.53125 1.10938 0.03125 0.53125 1.14062 0.015625 
0.421875 1.20312 0.9375 0.40625 1.17188 0.921875 0.390625 1.34375 0.578125 
0.40625 1.375 0.5625 0.53125 1.34375 0.8125 0.546875 1.32812 0.8125 
0.515625 1.35938 0.640625 0.546875 1.32812 0.65625 0.5 1.125 0.8125 
0.5 1.10938 0.828125 0.46875 1.10938 0.734375 0.515625 1.39062 0.78125 
0.46875 0.953125 0.828125 0.484375 0.578125 0.71875 0.421875 1.51562 0.78125 
0.484375 1 0.265625 
METADATA
INFORMATION 2
NAME L2_NORM_RANGE LOCATION vtkDataArray
DATA 2 0.300553 1.78604 
NAME L2_NORM_FINITE_RANGE LOCATION vtkDataArray
DATA 2 0.300553 1.78604 

CELLS 93 279
2 0 1 
2 0 2 
2 3 4 
2 5 6 
2 7 8 
2 9 10 
2 11 12 
2 7 13 
2 11 14 
2 15 16 
2 17 18 
2 17 19 
2 20 21 
2 22 23 
2 24 25 
2 26 27 
2 28 29 
2 24 30 
2 31 32 
2 33 34 
2 35 36 
2 37 38 
2 39 40 
2 41 42 
2 43 44 
2 45 46 
2 47 48 
2 49 50 
2 45 51 
2 52 53 
2 54 55 
2 56 55 
2 57 58 
2 59 60 
2 61 62 
2 63 64 
2 65 66 
2 67 68 
2 69 70 
2 71 70 
2 72 73 
2 74 75 
2 76 77 
2 78 79 
2 80 81 
2 82 83 
2 84 85 
2 86 87 
2 5 0 
2 88 7 
2 89 11 
2 90 17 
2 37 24 
2 91 45 
2 55 60 
2 70 92 
2 9 5 
2 41 37 
2 60 58 
2 88 9 
2 93 41 
2 58 62 
2 89 88 
2 62 64 
2 22 89 
2 64 53 
2 90 22 
2 53 68 
2 20 90 
2 68 66 
2 3 20 
2 66 73 
2 26 3 
2 73 92 
2 28 26 
2 92 75 
2 15 28 
2 75 77 
2 33 15 
2 77 79 
2 31 33 
2 79 81 
2 39 31 
2 81 49 
2 35 39 
2 49 91 
2 93 35 
2 91 43 
2 85 93 
2 43 83 
2 87 85 
2 83 47 
2 47 87 

CELL_TYPES 93
3
3
3
3
3
3
3
3
3
3
3
3
3
3
3
3
3
3
3
3
3
3
3
3
3
3
3
3
3
3
3
3
3
3
3
3
3
3
3
3
3
3
3
3
3
3
3
3
3
3
3
3
3
3
3
3
3
3
3
3
3
3
3
3
3
3
3
3
3
3
3
3
3
3
3
3
3
3
3
3
3
3
3
3
3
3
3
3
3
3
3
3
3

CELL_DATA 93
SCALARS SegmentationId int
LOOKUP_TABLE default
92 91 90 89 88 87 86 85 84 
83 82 81 80 79 78 77 76 75 
74 73 72 71 70 69 68 67 66 
65 64 0 1 2 3 4 5 6 
7 8 9 10 11 12 13 14 15 
16 17 18 63 60 58 56 53 43 
20 27 61 47 22 59 45 21 42 
23 41 24 54 19 40 26 55 25 
62 28 52 36 51 29 57 30 49 
31 50 32 46 37 48 44 34 39 
35 33 38 
METADATA
INFORMATION 0

FIELD FieldData 4
upNodeId 1 93 int
0 2 3 5 7 9 11 13 14 
15 17 19 20 22 24 26 28 30 
31 33 35 37 39 41 43 45 47 
49 51 53 55 55 58 60 62 64 
66 68 70 70 73 75 77 79 81 
83 85 87 1 8 12 18 25 46 
60 92 6 38 58 10 42 62 88 
64 89 53 23 68 90 66 21 73 
4 92 27 75 29 77 16 79 34 
81 32 50 40 91 36 44 93 83 
85 48 87 
METADATA
INFORMATION 0

downNodeId 1 93 int
1 1 4 6 8 10 12 8 12 
16 18 18 21 23 25 27 29 25 
32 34 36 38 40 42 44 46 48 
50 46 52 54 56 57 59 61 63 
65 67 69 71 72 74 76 78 80 
82 84 86 6 88 89 90 38 91 
55 70 10 42 60 88 93 58 89 
62 23 64 90 53 21 68 4 66 
27 73 29 92 16 75 34 77 32 
79 40 81 36 50 93 91 85 44 
87 83 48 
METADATA
INFORMATION 0

RegionSize 1 93 int
61 9 127 9 5 4 5 11 15 
62 7 17 21 10 49 7 2 15 
6 2 53 8 4 6 564 455 0 
94 63 7263 110631 30 5 48 30 6 
9 3 8 7 1 6 11 7 7 
4 10 1 49 56 25 13 23 19 
10896 2 102 171 93654 87 65 17743 29 
27184 112 80467 119 133513 167 3441 344 6013 
328 333 169 6066 293 5096 88 1273 13 
698 892 471 35 348 1127 1 8526 686 
305 3218 156 
METADATA
INFORMATION 0

RegionSpan 1 93 double
0.051822263747 0.022097086534 0.079672180116 0.03125 0.034938562661 0.03125 0.03125 0.038273278624 0.056336738169 
0.054126586765 0.022097086534 0.034938562661 0.038273278624 0.034938562661 0.078125 0.038273278624 0.015625 0.034938562661 
0.038273278624 0.022097086534 0.064423523843 0.049410589039 0.022097086534 0.034938562661 0.068107798696 0.484375 0.015625 
0.234375 0.265625 0.51609826088 0.54329180717 0.079672180116 0.044194173068 0.056336738169 0.038273278624 0.046875 
0.034938562661 0.022097086534 0.022097086534 0.038273278624 0.022097086534 0.034938562661 0.034938562661 0.038273278624 0.038273278624 
0.022097086534 0.046875 0.022097086534 0.21986323595 0.049410589039 0.08558165282 0.17539018393 0.088388346136 0.45794847608 
0.54976910353 0.076546557248 0.35078036785 0.20432338119 0.30856901407 0.40745013952 0.046875 0.39093738794 0.28895691037 
0.10597390682 0.36106938124 1.4312022924 0.10126157105 0.98102104664 0.14490029216 0.22371596098 0.44249382615 0.82753515244 
0.18619336188 0.21537576616 0.45661371946 0.38780230284 0.17258375883 0.87080466747 0.3795299232 0.9153636694 0.62304383516 
0.41280764341 0.42331928015 0.90544146299 0.52384543419 0.49063494802 0.21763107181 0.022097086534 0.51396512985 0.75809437037 
0.28211671114 0.20009763539 0.18355219066 
METADATA
INFORMATION 0

POINT_DATA 94
FIELD FieldData 2
Scalar 1 94 float
0.619618 0.71154 0.652811 0.501385 0.637158 0.595836 0.634774 0.570365 0.627684 
0.572626 0.606871 0.568219 0.604582 0.596815 0.592942 0.466886 0.576109 0.540684 
0.575792 0.575293 0.521698 0.570983 0.53957 0.562287 0.448432 0.55752 0.486448 
0.53234 0.479011 0.507555 0.494523 0.462597 0.493717 0.463308 0.493314 0.427725 
0.489869 0.440574 0.475103 0.429005 0.460654 0.402302 0.424346 0.188961 0.272935 
0.190289 0.271902 0.241553 0.266379 0.185656 0.235265 0.23371 0 0.0499123 
0.000347656 0.033515 0.00669798 0.00773274 0.0438606 0.0106367 0.0350251 0.0174348 0.0452633 
0.0174719 0.0469687 0.0491587 0.0830729 0.0523365 0.0762274 0.0703118 0.0997016 0.0730789 
0.0738909 0.10063 0.0865552 0.129755 0.132573 0.165757 0.144718 0.175742 0.14565 
0.181506 0.171988 0.198168 0.211709 0.248255 0.220376 0.243836 0.554724 0.550815 
0.531858 0.188945 0.101784 0.392041 
METADATA
INFORMATION 0

ttkMaskScalarField 1 94 char
0 0 0 0 0 0 0 0 0 
0 0 0 0 0 0 0 0 0 
0 0 0 0 0 0 0 0 0 
0 0 0 0 0 0 0 0 0 
0 0 0 0 0 0 0 0 0 
0 0 0 0 0 0 0 0 0 
0 0 0 0 0 0 0 0 0 
0 0 0 0 0 0 0 0 0 
0 0 0 0 0 0 0 0 0 
0 0 0 0 0 0 0 0 0 
0 0 0 0 
METADATA
INFORMATION 0

