# vtk DataFile Version 4.2
vtk output
ASCII
DATASET UNSTRUCTURED_GRID
POINTS 78 float
0.484375 1.32812 0.75 0.515625 1.32812 0.765625 0.46875 1.26562 0.703125 
0.4375 1.20312 0.703125 0.453125 1.29688 0.8125 0.46875 1.23438 0.859375 
0.484375 1.32812 0.6875 0.453125 1.15625 0.796875 0.453125 1.10938 0.796875 
0.46875 1.25 0.59375 0.484375 1.1875 0.53125 0.5 1.17188 0.921875 
0.453125 1.14062 0.96875 0.4375 1.32812 0.59375 0.46875 1.0625 0.8125 
0.46875 0.96875 0.828125 0.484375 1.01562 0.0625 0.453125 1.10938 0 
0.5 1.07812 0.453125 0.46875 1.0625 0.4375 0.484375 1.07812 0.65625 
0.484375 1.01562 0.640625 0.46875 0.90625 0.734375 0.46875 0.9375 0.703125 
0.46875 0.953125 0.796875 0.46875 0.90625 0.78125 0.453125 1.0625 0.703125 
0.453125 1.03125 0.703125 0.46875 0.875 0.53125 0.46875 0.96875 0.53125 
0.46875 1 0.40625 0.484375 1 0.375 0.484375 0.90625 0.9375 
0.46875 0.890625 0.96875 0.5 1 0.09375 0.46875 0.984375 0.015625 
0.484375 0.96875 0 0.484375 1 0.109375 0.46875 0.96875 0.109375 
0.484375 0.953125 0.1875 0.484375 0.9375 0.21875 0.578125 1.26562 0.9375 
0.578125 1.23438 0.9375 0.484375 0.578125 0.75 0.53125 0.53125 0.75 
0.46875 0.578125 0.765625 0.421875 0.53125 0.71875 0.421875 0.53125 0.234375 
0.421875 0.53125 0.015625 0.53125 0.53125 0.21875 0.53125 0.53125 0 
0.5625 1.10938 0.609375 0.578125 1.125 0.609375 0.453125 1.98438 0.21875 
0.515625 1.32812 0 0.46875 0.453125 0 0.625 0.015625 0.109375 
0.203125 1.15625 0.78125 0.53125 1.29688 0.484375 0.71875 1.15625 0.875 
0.3125 1.10938 0.78125 0.3125 1.125 0.78125 0.40625 1.26562 0.953125 
0.34375 1.23438 0.921875 0.609375 1.1875 0.84375 0.625 1.15625 0.859375 
0.625 1.07812 0.6875 0.640625 1.09375 0.703125 0.390625 0.9375 0.234375 
0.359375 0.9375 0.234375 0.421875 1.3125 0.546875 0.4375 1.3125 0.53125 
0.5625 0.9375 0.265625 0.578125 0.9375 0.265625 0.515625 1.125 0 
0.515625 1.17188 0 0.453125 1.32812 0.625 0.484375 0.9375 0.234375 

METADATA
INFORMATION 2
NAME L2_NORM_RANGE LOCATION vtkDataArray
DATA 2 0.634691 2.04717 
NAME L2_NORM_FINITE_RANGE LOCATION vtkDataArray
DATA 2 0.634691 2.04717 

CELLS 77 231
2 0 1 
2 2 3 
2 4 5 
2 2 6 
2 7 8 
2 9 10 
2 11 12 
2 9 13 
2 14 15 
2 16 17 
2 18 19 
2 20 21 
2 22 23 
2 24 25 
2 26 27 
2 28 29 
2 30 31 
2 32 33 
2 16 34 
2 35 36 
2 37 38 
2 39 40 
2 41 42 
2 43 44 
2 45 46 
2 47 48 
2 49 50 
2 51 52 
2 53 54 
2 55 56 
2 57 58 
2 59 58 
2 60 61 
2 62 63 
2 64 65 
2 66 67 
2 68 69 
2 70 71 
2 72 73 
2 74 75 
2 0 2 
2 76 9 
2 37 16 
2 58 65 
2 76 0 
2 35 37 
2 65 61 
2 7 76 
2 39 35 
2 61 63 
2 4 7 
2 77 39 
2 63 67 
2 14 4 
2 67 56 
2 20 14 
2 56 53 
2 22 20 
2 53 71 
2 26 22 
2 71 69 
2 24 26 
2 69 73 
2 18 24 
2 73 49 
2 28 18 
2 49 47 
2 32 28 
2 47 43 
2 11 32 
2 43 45 
2 30 11 
2 45 51 
2 77 30 
2 51 75 
2 41 77 
2 75 41 

CELL_TYPES 77
3
3
3
3
3
3
3
3
3
3
3
3
3
3
3
3
3
3
3
3
3
3
3
3
3
3
3
3
3
3
3
3
3
3
3
3
3
3
3
3
3
3
3
3
3
3
3
3
3
3
3
3
3
3
3
3
3
3
3
3
3
3
3
3
3
3
3
3
3
3
3
3
3
3
3
3
3

CELL_DATA 77
SCALARS SegmentationId int
LOOKUP_TABLE default
76 75 74 73 72 71 70 69 68 
67 66 65 64 63 62 61 60 59 
58 57 56 55 54 53 52 51 50 
49 48 0 1 2 3 4 5 6 
7 8 9 10 46 43 40 12 47 
30 15 24 31 13 44 29 14 45 
16 41 11 38 21 37 18 35 17 
36 19 39 26 34 28 32 27 42 
25 33 23 22 20 
METADATA
INFORMATION 0

FIELD FieldData 4
upNodeId 1 77 int
0 2 4 6 7 9 11 13 14 
16 18 20 22 24 26 28 30 32 
34 35 37 39 41 43 45 47 49 
51 53 56 58 58 61 63 65 67 
69 71 73 75 3 10 17 65 1 
38 61 76 36 63 8 40 67 5 
56 15 54 21 71 23 69 27 73 
25 50 19 48 29 44 33 46 12 
52 31 75 77 42 
METADATA
INFORMATION 0

downNodeId 1 77 int
1 3 5 3 8 10 12 10 15 
17 19 21 23 25 27 29 31 33 
17 36 38 40 42 44 46 48 50 
52 54 55 57 59 60 62 64 66 
68 70 72 74 1 76 38 58 76 
36 65 8 40 61 5 77 63 15 
67 21 56 23 54 27 71 25 69 
19 73 29 50 33 48 12 44 31 
46 77 52 42 75 
METADATA
INFORMATION 0

RegionSize 1 77 int
88 10 74 24 12 58 111 19 11 
29 18 13 18 14 8 7 19 15 
5 15 7 3 7 461 527 78 78 
6 5811 7001 24854 28110 0 19 31 3 
12 1 13 9 86 1 34 26534 21 
40 7020 33 0 3206 42 43 49530 119 
191117 93 11286 100 121931 207 8421 43 2411 
436 20055 362 466 258 65 139 109 455 
315 608 3363 7563 99 
METADATA
INFORMATION 0

RegionSpan 1 77 double
0.034938562661 0.069877125323 0.079672180116 0.066291257739 0.046875 0.089758791029 0.0732877478 0.084143199027 0.095043167472 
0.11692679673 0.038273278624 0.064423523843 0.044194173068 0.049410589039 0.03125 0.09375 0.034938562661 0.038273278624 
0.038273278624 0.027063293383 0.034938562661 0.034938562661 0.03125 0.066291257739 0.081189878285 0.21875 0.21875 
0.022097086534 0.69456595182 0.47726637125 0.46430182457 0.45554313064 0.015625 0.076546557248 0.038273278624 0.027063293383 
0.03125 0.022097086534 0.015625 0.046875 0.079672180116 0.08558165282 0.049410589039 0.41132646799 0.12884704769 
0.09631896764 0.32362991571 0.24306795001 0.17539018393 0.18087245524 0.14149039984 0.049410589039 0.39466658235 0.23489525914 
1.2309088707 0.15780475736 1.9792625904 0.18944305182 0.74115884304 0.16010861099 0.48462694883 0.14490029216 0.22097086906 
0.36710438132 0.41162312031 0.21986323595 0.11048543453 0.40774962306 0.521510005 0.2665425241 0.022097086534 0.54441410303 
0.5616312623 0.18355219066 0.61436259747 0.78156244755 0.94424653053 
METADATA
INFORMATION 0

POINT_DATA 78
FIELD FieldData 2
Scalar 1 78 float
0.565811 0.646922 0.593929 0.640541 0.55133 0.637345 0.623788 0.556341 0.616127 
0.562433 0.614532 0.444013 0.595344 0.59518 0.539686 0.566631 0.45274 0.561173 
0.483557 0.559165 0.530351 0.554331 0.522756 0.548164 0.508471 0.545653 0.51145 
0.533334 0.463308 0.506179 0.426204 0.48359 0.449651 0.482152 0.481631 0.413788 
0.458358 0.427341 0.457021 0.412696 0.436455 0.249207 0.276816 0.189684 0.273307 
0.191115 0.271878 0.188893 0.236279 0.184462 0.234435 0.195716 0.222197 0.049978 
0.0768356 0 0.0499146 0.000397379 0.0259746 0.000492914 0.00461523 0.0321525 0.00581718 
0.0327039 0.00801817 0.0309132 0.0157541 0.039565 0.0253747 0.0749209 0.0263637 0.064965 
0.0300099 0.0793356 0.173575 0.247547 0.561108 0.404061 
METADATA
INFORMATION 0

ttkMaskScalarField 1 78 char
0 0 0 0 0 0 0 0 0 
0 0 0 0 0 0 0 0 0 
0 0 0 0 0 0 0 0 0 
0 0 0 0 0 0 0 0 0 
0 0 0 0 0 0 0 0 0 
0 0 0 0 0 0 0 0 0 
0 0 0 0 0 0 0 0 0 
0 0 0 0 0 0 0 0 0 
0 0 0 0 0 0 
METADATA
INFORMATION 0

