# vtk DataFile Version 4.2
vtk output
ASCII
DATASET UNSTRUCTURED_GRID
POINTS 42 float
0.5 1.10938 0.765625 0.46875 1.10938 0.8125 0.46875 1.09375 0.84375 
0.46875 1.07812 0.859375 0.46875 1.14062 0.703125 0.484375 1.125 0.671875 
0.46875 1.125 0.734375 0.484375 1.04688 0.9375 0.484375 1.03125 0.953125 
0.46875 0.984375 0.765625 0.46875 0.96875 0.765625 0.484375 0.859375 0.25 
0.46875 1.01562 0 0.46875 0.84375 0.53125 0.484375 0.84375 0.515625 
0.46875 0.875 0.03125 0.484375 0.875 0 0.484375 0.578125 0.75 
0.53125 0.53125 0.75 0.46875 0.578125 0.765625 0.421875 0.53125 0.765625 
0.421875 0.53125 0.234375 0.421875 0.53125 0.015625 0.53125 0.53125 0.21875 
0.53125 0.53125 0 0.46875 0.453125 0 0.328125 0.03125 0.140625 
0.6875 1.0625 0.921875 0.390625 1.17188 0.546875 0.265625 1.09375 0.578125 
0.328125 1.09375 0.890625 0.34375 1.10938 0.890625 0.328125 1.03125 0.78125 
0.296875 1.03125 0.765625 0.40625 0.859375 0.234375 0.390625 0.859375 0.203125 
0.609375 0.984375 0.703125 0.625 1 0.71875 0.546875 0.859375 0.25 
0.578125 0.859375 0.234375 0.375 1.03125 0.90625 0.359375 1.04688 0.921875 

METADATA
INFORMATION 2
NAME L2_NORM_RANGE LOCATION vtkDataArray
DATA 2 0.358355 1.5657 
NAME L2_NORM_FINITE_RANGE LOCATION vtkDataArray
DATA 2 0.358355 1.5657 

CELLS 41 123
2 0 1 
2 2 3 
2 4 5 
2 4 6 
2 7 8 
2 9 10 
2 11 12 
2 13 14 
2 15 16 
2 17 18 
2 19 20 
2 21 22 
2 23 24 
2 25 26 
2 27 28 
2 29 30 
2 31 30 
2 32 33 
2 34 35 
2 36 37 
2 38 39 
2 40 41 
2 0 4 
2 30 33 
2 2 0 
2 33 28 
2 7 2 
2 28 37 
2 9 7 
2 37 26 
2 13 9 
2 26 39 
2 11 13 
2 39 41 
2 15 11 
2 41 35 
2 19 15 
2 35 23 
2 17 19 
2 23 21 
2 21 17 

CELL_TYPES 41
3
3
3
3
3
3
3
3
3
3
3
3
3
3
3
3
3
3
3
3
3
3
3
3
3
3
3
3
3
3
3
3
3
3
3
3
3
3
3
3
3

CELL_DATA 41
SCALARS SegmentationId int
LOOKUP_TABLE default
40 39 38 37 36 35 34 33 32 
31 30 29 28 0 1 2 3 4 
5 6 7 8 25 11 27 12 26 
10 24 14 23 9 21 15 22 16 
20 13 18 17 19 
METADATA
INFORMATION 0

FIELD FieldData 4
upNodeId 1 41 int
0 2 4 6 7 9 11 13 15 
17 19 21 23 26 28 30 30 33 
35 37 39 41 5 33 1 28 3 
37 8 26 10 39 14 41 12 35 
16 24 20 22 18 
METADATA
INFORMATION 0

downNodeId 1 41 int
1 3 5 5 8 10 12 14 16 
18 20 22 24 25 27 29 31 32 
34 36 38 40 1 30 3 33 8 
28 10 37 14 26 12 39 16 41 
20 35 18 24 22 
METADATA
INFORMATION 0

RegionSize 1 41 int
28 19 34 6 13 4 150 4 19 
472 532 90 78 6326 44812 30972 7 18 
12 15 8 3 69 5697 27 4084 201 
52551 61 177289 1381 161246 812 5270 225 1059 
8125 21993 124 125 285 
METADATA
INFORMATION 0

RegionSpan 1 41 double
0.056336738169 0.022097086534 0.038273278624 0.034938562661 0.022097086534 0.015625 0.29522567987 0.022097086534 0.034938562661 
0.066291257739 0.066291257739 0.21875 0.21875 0.4664003551 0.49063494802 0.31868872046 0.022097086534 0.034938562661 
0.034938562661 0.027063293383 0.034938562661 0.027063293383 0.076546557248 0.14320549369 0.08558165282 0.27643448114 0.10597390682 
0.33765912056 0.18355219066 1.1665503979 0.2733258605 0.87010347843 0.28211671114 0.74542880058 0.21986323595 0.74346107244 
0.79211199284 0.35733115673 0.022097086534 0.11048543453 0.521510005 
METADATA
INFORMATION 0

POINT_DATA 42
FIELD FieldData 2
Scalar 1 42 float
0.582472 0.642997 0.573961 0.639825 0.603565 0.638674 0.626425 0.540319 0.578391 
0.532819 0.558414 0.393994 0.530095 0.433346 0.466712 0.385072 0.430134 0.189322 
0.273679 0.191008 0.271942 0.186309 0.236538 0.18496 0.234546 0 0.0499023 
0.000956386 0.0358189 0.00108705 0.0324141 0.00372561 0.00855564 0.0344354 0.0102319 0.0705359 
0.0173126 0.0422161 0.0227178 0.0637169 0.0475085 0.0690999 
METADATA
INFORMATION 0

ttkMaskScalarField 1 42 char
0 0 0 0 0 0 0 0 0 
0 0 0 0 0 0 0 0 0 
0 0 0 0 0 0 0 0 0 
0 0 0 0 0 0 0 0 0 
0 0 0 0 0 0 
METADATA
INFORMATION 0

