# vtk DataFile Version 4.2
vtk output
ASCII
DATASET UNSTRUCTURED_GRID
POINTS 54 float
0.5 1.23438 0.71875 0.484375 1.23438 0.765625 0.453125 1.25 0.796875 
0.484375 1.20312 0.828125 0.484375 1.14062 0.6875 0.46875 1.25 0.703125 
0.46875 1.17188 0.640625 0.46875 1.25 0.59375 0.484375 1.125 0.546875 
0.46875 1.28125 0.78125 0.453125 1.26562 0.78125 0.484375 1.01562 0.75 
0.484375 0.96875 0.734375 0.484375 0.953125 0.78125 0.46875 0.96875 0.796875 
0.5 1.35938 0.734375 0.46875 1.40625 0.734375 0.484375 0.96875 0.078125 
0.484375 1.07812 0 0.484375 1.0625 0.890625 0.484375 1 0.890625 
0.484375 0.96875 0.390625 0.46875 0.96875 0.390625 0.484375 0.96875 0.109375 
0.421875 0.53125 0.265625 0.421875 0.53125 0.75 0.484375 0.578125 0.75 
0.53125 0.53125 0.75 0.53125 0.53125 0.203125 0.53125 0.53125 0.015625 
0.421875 0.53125 0 0.46875 0.453125 0 0.34375 0.015625 0.234375 
0.265625 1.15625 0.9375 0.421875 1.20312 0 0.71875 1.14062 0.59375 
0.359375 1.125 0.640625 0.328125 1.15625 0.640625 0.59375 1.125 0.84375 
0.640625 1.15625 0.828125 0.328125 1.04688 0.734375 0.3125 1.07812 0.734375 
0.59375 1.20312 0.609375 0.609375 1.21875 0.578125 0.5625 0.90625 0.25 
0.578125 0.90625 0.265625 0.59375 1.125 0.5625 0.59375 1.14062 0.578125 
0.390625 0.90625 0.234375 0.375 0.90625 0.234375 0.4375 1.1875 0.890625 
0.4375 1.17188 0.890625 0.484375 0.90625 0.234375 0.46875 0.578125 0.765625 

METADATA
INFORMATION 2
NAME L2_NORM_RANGE LOCATION vtkDataArray
DATA 2 0.416341 1.65426 
NAME L2_NORM_FINITE_RANGE LOCATION vtkDataArray
DATA 2 0.416341 1.65426 

CELLS 53 159
2 0 1 
2 2 3 
2 4 5 
2 4 6 
2 7 8 
2 9 10 
2 11 12 
2 13 14 
2 15 16 
2 17 18 
2 19 20 
2 21 22 
2 17 23 
2 24 25 
2 26 27 
2 28 29 
2 24 30 
2 31 32 
2 33 34 
2 35 34 
2 36 37 
2 38 39 
2 40 41 
2 42 43 
2 44 45 
2 46 47 
2 48 49 
2 50 51 
2 7 4 
2 52 17 
2 53 24 
2 34 39 
2 0 7 
2 39 37 
2 9 0 
2 37 41 
2 2 9 
2 41 43 
2 11 2 
2 43 32 
2 13 11 
2 32 47 
2 19 13 
2 47 45 
2 15 19 
2 45 49 
2 21 15 
2 49 28 
2 52 21 
2 28 53 
2 51 52 
2 53 26 
2 26 51 

CELL_TYPES 53
3
3
3
3
3
3
3
3
3
3
3
3
3
3
3
3
3
3
3
3
3
3
3
3
3
3
3
3
3
3
3
3
3
3
3
3
3
3
3
3
3
3
3
3
3
3
3
3
3
3
3
3
3

CELL_DATA 53
SCALARS SegmentationId int
LOOKUP_TABLE default
52 51 50 49 48 47 46 45 44 
43 42 41 40 39 38 37 36 0 
1 2 3 4 5 6 7 8 9 
10 33 27 24 12 32 14 35 13 
31 15 34 16 30 11 29 18 26 
17 28 19 25 21 20 23 22 
METADATA
INFORMATION 0

FIELD FieldData 4
upNodeId 1 53 int
0 2 4 6 7 9 11 13 15 
17 19 21 23 24 26 28 30 32 
34 34 37 39 41 43 45 47 49 
51 5 18 25 39 8 37 1 41 
10 43 3 32 12 47 14 45 20 
49 16 29 22 53 52 27 51 
METADATA
INFORMATION 0

downNodeId 1 53 int
1 3 5 5 8 10 12 14 16 
18 20 22 18 25 27 29 25 31 
33 35 36 38 40 42 44 46 48 
50 8 52 53 34 1 39 10 37 
3 41 12 43 14 32 20 47 16 
45 22 49 52 29 51 53 27 
METADATA
INFORMATION 0

RegionSize 1 53 int
74 113 18 15 17 9 5 3 7 
75 16 3 12 567 451 77 85 6086 
15627 17513 10 21 9 4 11 8 9 
3 40 115 11 35663 63 1455 14 73855 
33 43245 56 133714 241 154618 427 5203 116 
2868 1027 19454 965 355 7577 117 2154 
METADATA
INFORMATION 0

RegionSpan 1 53 double
0.049410589039 0.064423523843 0.11158481985 0.058463398367 0.13441133499 0.022097086534 0.049410589039 0.027063293383 0.056336738169 
0.13441133499 0.0625 0.015625 0.03125 0.484375 0.066291257739 0.1875 0.265625 0.51182311773 
0.95158690214 0.66676837206 0.044194173068 0.058463398367 0.034938562661 0.038273278624 0.022097086534 0.022097086534 0.015625 
0.015625 0.14490029216 0.16828639805 0.50437539816 0.85781109333 0.12979099154 0.36443448067 0.084143199027 0.12303137034 
0.038273278624 0.36376395822 0.24105076492 1.2791522741 0.069877125323 1.2026176453 0.15467961133 0.39093738794 0.33584663272 
0.20551478863 0.52057284117 0.40745013952 0.16828639805 0.56789940596 0.7095195055 0.022097086534 0.6119736433 
METADATA
INFORMATION 0

POINT_DATA 54
FIELD FieldData 2
Scalar 1 54 float
0.573328 0.674223 0.562492 0.660076 0.612022 0.653462 0.637781 0.59141 0.618328 
0.570353 0.594481 0.55613 0.58123 0.532504 0.557102 0.490223 0.548324 0.435483 
0.535799 0.498139 0.527213 0.438936 0.467606 0.467263 0.189259 0.27353 0.189911 
0.271407 0.184843 0.236391 0.233026 0 0.049882 0.000362043 0.0246997 0.00101735 
0.00607881 0.030843 0.00900726 0.0305874 0.00915412 0.0410231 0.0173506 0.044467 0.033455 
0.0737587 0.0402603 0.067024 0.0506479 0.0790572 0.205734 0.230444 0.399057 0.188541 

METADATA
INFORMATION 0

ttkMaskScalarField 1 54 char
0 0 0 0 0 0 0 0 0 
0 0 0 0 0 0 0 0 0 
0 0 0 0 0 0 0 0 0 
0 0 0 0 0 0 0 0 0 
0 0 0 0 0 0 0 0 0 
0 0 0 0 0 0 0 0 0 

METADATA
INFORMATION 0

