# vtk DataFile Version 4.2
vtk output
ASCII
DATASET UNSTRUCTURED_GRID
POINTS 64 float
0.453125 1.20312 0.8125 0.46875 1.17188 0.859375 0.484375 1.23438 0.78125 
0.46875 1.17188 0.609375 0.484375 1.25 0.6875 0.484375 1.125 0.53125 
0.453125 1.125 0.703125 0.4375 1.10938 0.71875 0.484375 1.14062 0.9375 
0.46875 1.09375 0.96875 0.46875 1.25 0.59375 0.46875 1.26562 0.578125 
0.46875 0.96875 0 0.453125 1.07812 0 0.484375 1.0625 0.671875 
0.484375 1.01562 0.65625 0.46875 0.921875 0.765625 0.46875 0.90625 0.75 
0.515625 1.23438 0.90625 0.5 1.25 0.921875 0.484375 1.04688 0.46875 
0.46875 1.03125 0.4375 0.46875 0.921875 0.796875 0.46875 0.859375 0.78125 
0.46875 0.953125 0.546875 0.484375 0.921875 0.5625 0.46875 0.890625 0.546875 
0.484375 0.921875 0.515625 0.484375 0.984375 0.390625 0.484375 0.96875 0.390625 
0.484375 0.921875 0.015625 0.484375 0.578125 0.75 0.53125 0.53125 0.75 
0.46875 0.578125 0.765625 0.421875 0.53125 0.75 0.421875 0.53125 0.234375 
0.421875 0.53125 0.015625 0.53125 0.53125 0.21875 0.53125 0.53125 0 
0.46875 0.453125 0 0.3125 0.015625 0.421875 0.734375 1.09375 0.703125 
0.421875 1.26562 0.5 0.21875 1.125 0.828125 0.609375 1.14062 0.84375 
0.625 1.10938 0.890625 0.625 1.04688 0.703125 0.625 1.04688 0.734375 
0.4375 1.23438 0.96875 0.40625 1.23438 0.953125 0.5625 0.90625 0.25 
0.578125 0.90625 0.25 0.390625 0.90625 0.234375 0.375 0.90625 0.1875 
0.390625 1.23438 0.578125 0.359375 1.23438 0.5625 0.375 1.09375 0.921875 
0.359375 1.09375 0.921875 0.578125 1.09375 0.640625 0.578125 1.10938 0.625 
0.515625 1.09375 0 0.53125 1.125 0 0.484375 1.29688 0.75 
0.46875 0.90625 0.25 
METADATA
INFORMATION 2
NAME L2_NORM_RANGE LOCATION vtkDataArray
DATA 2 0.525242 1.63167 
NAME L2_NORM_FINITE_RANGE LOCATION vtkDataArray
DATA 2 0.525242 1.63167 

CELLS 63 189
2 0 1 
2 0 2 
2 3 4 
2 3 5 
2 6 7 
2 8 9 
2 10 11 
2 12 13 
2 14 15 
2 16 17 
2 18 19 
2 20 21 
2 22 23 
2 24 25 
2 26 27 
2 28 29 
2 12 30 
2 31 32 
2 33 34 
2 35 36 
2 37 38 
2 39 40 
2 41 42 
2 43 42 
2 44 45 
2 46 47 
2 48 49 
2 50 51 
2 52 53 
2 54 55 
2 56 57 
2 58 59 
2 60 61 
2 62 0 
2 6 3 
2 63 12 
2 42 45 
2 62 6 
2 45 47 
2 10 62 
2 47 49 
2 18 10 
2 49 40 
2 16 18 
2 40 55 
2 14 16 
2 55 57 
2 8 14 
2 57 51 
2 20 8 
2 51 53 
2 22 20 
2 53 59 
2 24 22 
2 59 37 
2 26 24 
2 37 35 
2 28 26 
2 35 31 
2 63 28 
2 31 33 
2 61 63 
2 33 61 

CELL_TYPES 63
3
3
3
3
3
3
3
3
3
3
3
3
3
3
3
3
3
3
3
3
3
3
3
3
3
3
3
3
3
3
3
3
3
3
3
3
3
3
3
3
3
3
3
3
3
3
3
3
3
3
3
3
3
3
3
3
3
3
3
3
3
3
3

CELL_DATA 63
SCALARS SegmentationId int
LOOKUP_TABLE default
62 61 60 59 58 57 56 55 54 
53 52 51 50 49 48 47 46 45 
44 43 42 0 1 2 3 4 5 
6 7 8 9 10 11 41 40 36 
13 39 14 24 15 37 16 33 12 
34 19 35 20 38 17 32 18 31 
21 30 25 29 27 28 26 22 23 

METADATA
INFORMATION 0

FIELD FieldData 4
upNodeId 1 63 int
0 2 3 5 6 8 10 12 14 
16 18 20 22 24 26 28 30 31 
33 35 37 40 42 42 45 47 49 
51 53 55 57 59 61 1 4 13 
45 7 47 62 49 11 40 19 55 
17 57 15 51 9 53 21 59 23 
38 25 36 27 32 29 34 63 61 

METADATA
INFORMATION 0

downNodeId 1 63 int
1 1 4 4 7 9 11 13 15 
17 19 21 23 25 27 29 13 32 
34 36 38 39 41 43 44 46 48 
50 52 54 56 58 60 62 7 63 
42 62 45 11 47 19 49 17 40 
15 55 9 57 21 51 23 53 25 
59 27 38 29 36 63 32 61 34 

METADATA
INFORMATION 0

RegionSize 1 63 int
42 71 87 32 8 41 10 150 17 
4 4 13 14 5 6 7 19 470 
523 79 78 6640 31678 28387 12 2 9 
10 10 3 3 1 3 1 7 6 
8015 5 30307 115 4389 297 221753 22 146815 
41 7273 84 4468 370 91 16 8635 200 
10610 177 346 623 122 848 146 6540 3464 

METADATA
INFORMATION 0

RegionSpan 1 63 double
0.058463398367 0.054126586765 0.11158481985 0.092438749969 0.027063293383 0.058463398367 0.022097086534 0.11048543453 0.049410589039 
0.022097086534 0.027063293383 0.038273278624 0.064423523843 0.038273278624 0.046875 0.015625 0.051822263747 0.066291257739 
0.068107798696 0.21875 0.21875 0.62753391266 0.41043516994 0.4107324779 0.058463398367 0.03125 0.034938562661 
0.015625 0.049410589039 0.034938562661 0.015625 0.022097086534 0.034938562661 0.11692679673 0.10597390682 0.25769409537 
0.46718490124 0.18087245524 0.16828639805 0.1638763845 0.36174491048 0.31638213992 1.332804203 0.34587413073 1.2277313471 
0.16973094642 0.3859090209 0.27687570453 0.73104298115 0.4780330658 0.21252298355 0.35147568583 0.52337920666 0.25194555521 
0.70814180374 0.0625 0.11048543453 0.18288592994 0.521510005 0.16162624955 0.022097086534 0.33802044392 0.94295287132 

METADATA
INFORMATION 0

POINT_DATA 64
FIELD FieldData 2
Scalar 1 64 float
0.572744 0.649789 0.639949 0.576453 0.637245 0.614935 0.573511 0.60329 0.512382 
0.599551 0.557077 0.586611 0.401892 0.573752 0.51871 0.549378 0.522581 0.548001 
0.524937 0.547485 0.490762 0.534638 0.489526 0.524885 0.475951 0.499785 0.466602 
0.491576 0.434793 0.470369 0.448847 0.189582 0.273424 0.191255 0.271855 0.188162 
0.236386 0.184667 0.234563 0 0.049907 0.00106082 0.0290153 0.00135009 0.00895661 
0.0304881 0.00938664 0.0356542 0.0131265 0.0363233 0.038561 0.0786525 0.0414813 0.0788496 
0.0418294 0.0636445 0.0441236 0.0711651 0.0836575 0.106717 0.217749 0.252194 0.572387 
0.400094 
METADATA
INFORMATION 0

ttkMaskScalarField 1 64 char
0 0 0 0 0 0 0 0 0 
0 0 0 0 0 0 0 0 0 
0 0 0 0 0 0 0 0 0 
0 0 0 0 0 0 0 0 0 
0 0 0 0 0 0 0 0 0 
0 0 0 0 0 0 0 0 0 
0 0 0 0 0 0 0 0 0 
0 
METADATA
INFORMATION 0

