# vtk DataFile Version 4.2
vtk output
ASCII
DATASET UNSTRUCTURED_GRID
POINTS 50 float
0.46875 1.21875 0.71875 0.484375 1.21875 0.734375 0.484375 1.25 0.703125 
0.453125 1.25 0.765625 0.484375 1.23438 0.796875 0.46875 1.125 0.90625 
0.46875 1.09375 0.9375 0.46875 1.04688 0.484375 0.484375 1.03125 0.453125 
0.46875 0.953125 0.828125 0.484375 0.9375 0.8125 0.46875 0.96875 0.59375 
0.484375 0.953125 0.59375 0.46875 1.01562 0.9375 0.484375 0.96875 0.921875 
0.484375 0.96875 0.078125 0.484375 1.04688 0 0.46875 0.96875 0.40625 
0.46875 0.953125 0.390625 0.46875 0.859375 0.953125 0.484375 0.875 0.96875 
0.484375 0.953125 0.09375 0.453125 0.9375 0.015625 0.453125 0.890625 0 
0.484375 0.875 0.453125 0.46875 0.84375 0.453125 0.46875 0.578125 0.796875 
0.421875 0.53125 0.703125 0.484375 0.578125 0.71875 0.53125 0.53125 0.765625 
0.53125 0.53125 0.28125 0.53125 0.53125 0.015625 0.421875 0.53125 0.25 
0.421875 0.53125 0 0.46875 0.453125 0 0.3125 0.015625 0.09375 
0.734375 1.09375 0.75 0.671875 1.09375 0.671875 0.359375 1.14062 0.640625 
0.375 1.125 0.625 0.625 1.09375 0.671875 0.328125 1.04688 0.71875 
0.328125 1.04688 0.6875 0.53125 1.21875 0.546875 0.546875 1.21875 0.546875 
0.40625 0.890625 0.234375 0.375 0.890625 0.234375 0.453125 1.07812 0 
0.4375 1.07812 0 0.484375 0.890625 0.25 
METADATA
INFORMATION 2
NAME L2_NORM_RANGE LOCATION vtkDataArray
DATA 2 0.326634 1.54703 
NAME L2_NORM_FINITE_RANGE LOCATION vtkDataArray
DATA 2 0.326634 1.54703 

CELLS 49 147
2 0 1 
2 0 2 
2 3 4 
2 5 6 
2 7 8 
2 9 10 
2 11 12 
2 13 14 
2 15 16 
2 17 18 
2 19 20 
2 15 21 
2 22 23 
2 24 25 
2 26 27 
2 28 29 
2 30 31 
2 32 33 
2 34 35 
2 36 37 
2 38 39 
2 40 37 
2 41 42 
2 43 44 
2 45 46 
2 47 48 
2 3 0 
2 49 15 
2 37 39 
2 5 3 
2 39 42 
2 7 5 
2 42 35 
2 9 7 
2 35 44 
2 11 9 
2 44 46 
2 13 11 
2 46 30 
2 19 13 
2 30 28 
2 17 19 
2 28 32 
2 24 17 
2 32 26 
2 49 24 
2 26 22 
2 48 49 
2 22 48 

CELL_TYPES 49
3
3
3
3
3
3
3
3
3
3
3
3
3
3
3
3
3
3
3
3
3
3
3
3
3
3
3
3
3
3
3
3
3
3
3
3
3
3
3
3
3
3
3
3
3
3
3
3
3

CELL_DATA 49
SCALARS SegmentationId int
LOOKUP_TABLE default
48 47 46 45 44 43 42 41 40 
39 38 37 36 35 34 33 32 31 
0 1 2 3 4 5 6 7 30 
23 9 29 10 28 11 27 8 26 
12 25 13 24 17 21 16 22 18 
19 20 14 15 
METADATA
INFORMATION 0

FIELD FieldData 4
upNodeId 1 49 int
0 2 3 5 7 9 11 13 15 
17 19 21 22 24 26 28 30 32 
35 37 39 37 42 44 46 48 1 
16 39 4 42 6 35 8 44 10 
46 12 31 14 29 20 33 18 27 
25 23 49 48 
METADATA
INFORMATION 0

downNodeId 1 49 int
1 1 4 6 8 10 12 14 16 
18 20 16 23 25 27 29 31 33 
34 36 38 40 41 43 45 47 4 
49 37 6 39 8 42 10 35 12 
44 14 46 20 31 18 29 25 33 
49 27 48 23 
METADATA
INFORMATION 0

RegionSize 1 49 int
12 21 96 7 15 10 5 10 67 
10 4 2 51 5 573 448 76 77 
7014 57754 15 11 11 0 13 3 87 
84 34396 259 4774 441 226342 42 120744 207 
38089 12 20903 693 190 59 0 848 26 
129 8221 619 763 
METADATA
INFORMATION 0

RegionSpan 1 49 double
0.022097086534 0.038273278624 0.046875 0.044194173068 0.038273278624 0.027063293383 0.022097086534 0.051822263747 0.11048543453 
0.022097086534 0.027063293383 0.022097086534 0.049410589039 0.034938562661 0.11481983215 0.081189878285 0.265625 0.25 
0.47392970324 0.10004881769 0.027063293383 0.046875 0.03125 0.015625 0.03125 0.015625 0.058463398367 
0.18879759312 0.30217310786 0.18879759312 0.11048543453 0.42904782295 1.1900671721 0.35630482435 1.3068143129 0.23489525914 
0.48462694883 0.34693130851 0.39466658235 0.15702930093 0.44249382615 0.55770528316 0.47521582246 0.10597390682 0.55087822676 
0.20372506976 0.86008495092 0.31599608064 0.14235052466 
METADATA
INFORMATION 0

POINT_DATA 50
FIELD FieldData 2
Scalar 1 50 float
0.63336 0.686679 0.67343 0.591583 0.672399 0.545709 0.575528 0.500415 0.554709 
0.496343 0.540438 0.481056 0.505279 0.479997 0.505027 0.427971 0.492324 0.437766 
0.484784 0.440131 0.482501 0.451391 0.355309 0.433809 0.400913 0.424237 0.189939 
0.272309 0.189558 0.272264 0.187358 0.236754 0.189563 0.23337 0 0.0499046 
0.00072521 0.0293552 0.00600373 0.0351871 0.00720788 0.00953899 0.0359222 0.0316751 0.0533471 
0.0475778 0.0747308 0.353345 0.37702 0.396318 
METADATA
INFORMATION 0

ttkMaskScalarField 1 50 char
0 0 0 0 0 0 0 0 0 
0 0 0 0 0 0 0 0 0 
0 0 0 0 0 0 0 0 0 
0 0 0 0 0 0 0 0 0 
0 0 0 0 0 0 0 0 0 
0 0 0 0 0 
METADATA
INFORMATION 0

