# vtk DataFile Version 4.2
vtk output
ASCII
DATASET UNSTRUCTURED_GRID
POINTS 93 float
0.46875 1.28125 0.71875 0.46875 1.32812 0.75 0.46875 1.32812 0.703125 
0.453125 1.375 0.765625 0.453125 1.39062 0.765625 0.46875 1.125 0.8125 
0.46875 1.10938 0.8125 0.453125 1.14062 0.90625 0.484375 1.125 0.953125 
0.484375 1.03125 0.734375 0.46875 0.96875 0.765625 0.484375 1.3125 0.609375 
0.484375 1.14062 0.5625 0.453125 1.3125 0.828125 0.4375 1.3125 0.828125 
0.453125 1.28125 0.859375 0.453125 1.29688 0.875 0.46875 1.0625 0.875 
0.46875 1.04688 0.875 0.5 1.14062 0.515625 0.46875 1.10938 0.484375 
0.46875 0.984375 0.109375 0.453125 1.04688 0.0625 0.484375 0.984375 0.609375 
0.484375 0.890625 0.59375 0.5 1.04688 0.640625 0.5 1.04688 0.625 
0.484375 1.07812 0.640625 0.484375 1.07812 0.625 0.46875 0.875 0.5625 
0.484375 0.90625 0.546875 0.453125 1.03125 0.421875 0.5 1.01562 0.375 
0.5 1.17188 0.515625 0.46875 0.953125 0.046875 0.46875 0.9375 0.015625 
0.484375 0.953125 0.1875 0.46875 0.96875 0.328125 0.484375 1 0.125 
0.515625 1.3125 0.890625 0.515625 1.3125 0.875 0.4375 1.07812 0.984375 
0.421875 1.10938 0.984375 0.484375 0.578125 0.75 0.53125 0.53125 0.734375 
0.46875 0.578125 0.734375 0.421875 0.53125 0.734375 0.421875 0.53125 0.265625 
0.421875 0.53125 0 0.53125 0.53125 0.234375 0.53125 0.53125 0 
0.46875 0.453125 0 0.65625 0.078125 0.3125 0.203125 1.15625 0.765625 
0.609375 1.3125 0.984375 0.5 1.29688 0.984375 0.453125 1.29688 0.953125 
0.453125 1.29688 0.96875 0.640625 1.20312 0.859375 0.65625 1.20312 0.890625 
0.609375 1.20312 0.59375 0.609375 1.23438 0.59375 0.3125 1.09375 0.71875 
0.3125 1.09375 0.75 0.40625 1.3125 0.546875 0.40625 1.32812 0.546875 
0.5625 0.9375 0.25 0.59375 0.9375 0.234375 0.609375 1.1875 0.90625 
0.609375 1.17188 0.9375 0.359375 1.10938 0.546875 0.34375 1.10938 0.546875 
0.390625 0.9375 0.234375 0.375 0.953125 0.1875 0.484375 1.3125 0.9375 
0.5 1.3125 0.9375 0.515625 1.125 0.484375 0.546875 1.10938 0.5 
0.53125 1.0625 0.046875 0.546875 1.04688 0 0.4375 1.15625 0.96875 
0.40625 1.10938 0.921875 0.5 1.125 0.453125 0.5 1.10938 0.453125 
0.5 1.14062 0.46875 0.5 1.15625 0.46875 0.546875 1.1875 0.609375 
0.578125 1.1875 0.578125 0.453125 1.14062 0 0.4375 1.15625 0 
0.46875 1.3125 0.796875 0.4375 1.25 0.75 0.484375 0.96875 0.359375 

METADATA
INFORMATION 2
NAME L2_NORM_RANGE LOCATION vtkDataArray
DATA 2 0.651958 1.75014 
NAME L2_NORM_FINITE_RANGE LOCATION vtkDataArray
DATA 2 0.651958 1.75014 

CELLS 92 276
2 0 1 
2 0 2 
2 3 4 
2 5 6 
2 7 8 
2 9 10 
2 11 12 
2 13 14 
2 15 16 
2 17 18 
2 19 20 
2 21 22 
2 23 24 
2 25 26 
2 27 28 
2 29 30 
2 31 32 
2 19 33 
2 34 35 
2 36 37 
2 21 38 
2 39 40 
2 41 42 
2 43 44 
2 45 46 
2 47 48 
2 49 50 
2 51 52 
2 53 54 
2 55 54 
2 56 57 
2 58 59 
2 60 61 
2 62 63 
2 64 65 
2 66 67 
2 68 69 
2 70 71 
2 72 73 
2 74 75 
2 76 77 
2 78 79 
2 80 81 
2 82 83 
2 84 85 
2 86 87 
2 88 89 
2 90 91 
2 3 0 
2 36 21 
2 54 59 
2 5 3 
2 34 36 
2 59 61 
2 13 5 
2 92 34 
2 61 65 
2 9 13 
2 65 63 
2 15 9 
2 63 52 
2 17 15 
2 52 69 
2 7 17 
2 69 57 
2 25 7 
2 57 71 
2 23 25 
2 71 67 
2 27 23 
2 67 75 
2 11 27 
2 75 73 
2 19 11 
2 73 77 
2 29 19 
2 77 79 
2 31 29 
2 79 87 
2 39 31 
2 87 83 
2 92 39 
2 83 81 
2 91 92 
2 81 85 
2 41 91 
2 85 49 
2 89 41 
2 49 43 
2 45 89 
2 43 47 
2 47 45 

CELL_TYPES 92
3
3
3
3
3
3
3
3
3
3
3
3
3
3
3
3
3
3
3
3
3
3
3
3
3
3
3
3
3
3
3
3
3
3
3
3
3
3
3
3
3
3
3
3
3
3
3
3
3
3
3
3
3
3
3
3
3
3
3
3
3
3
3
3
3
3
3
3
3
3
3
3
3
3
3
3
3
3
3
3
3
3
3
3
3
3
3
3
3
3
3
3

CELL_DATA 92
SCALARS SegmentationId int
LOOKUP_TABLE default
91 90 89 88 87 86 85 84 83 
82 81 80 79 78 77 76 75 74 
73 72 71 70 69 68 67 66 65 
0 1 2 3 4 5 6 7 8 
9 10 11 12 13 14 15 16 17 
18 19 20 64 54 22 63 47 24 
62 48 25 58 27 60 26 57 21 
56 29 61 23 52 30 53 28 51 
32 59 31 55 33 50 34 49 38 
46 36 40 35 41 37 39 45 42 
43 44 
METADATA
INFORMATION 0

FIELD FieldData 4
upNodeId 1 92 int
0 2 3 5 7 9 11 13 15 
17 19 21 23 25 27 29 31 33 
34 36 38 39 41 43 45 47 49 
52 54 54 57 59 61 63 65 67 
69 71 73 75 77 79 81 83 85 
87 89 91 1 22 59 4 37 61 
6 35 65 14 63 10 52 16 69 
18 57 8 71 26 67 24 75 28 
73 12 77 20 79 30 87 32 83 
40 81 92 85 91 50 42 44 89 
48 46 
METADATA
INFORMATION 0

downNodeId 1 92 int
1 1 4 6 8 10 12 14 16 
18 20 22 24 26 28 30 32 20 
35 37 22 40 42 44 46 48 50 
51 53 55 56 58 60 62 64 66 
68 70 72 74 76 78 80 82 84 
86 88 90 4 37 54 6 35 59 
14 92 61 10 65 16 63 18 52 
8 69 26 57 24 71 28 67 12 
75 20 73 30 77 32 79 40 87 
92 83 91 81 42 85 89 50 46 
44 48 
METADATA
INFORMATION 0

RegionSize 1 92 int
16 33 2 2 89 20 82 17 6 
2 39 85 12 4 1 4 25 1 
31 28 10 0 3 457 546 81 68 
6670 149674 63 0 16 3 4 0 17 
5 13 18 0 6 14 12 0 0 
2 5 10 0 30 9469 186 38 32421 
354 6 21145 32 108504 26 15570 45 80637 
248 41672 323 12776 7 4837 6 3252 38 
553 264 12327 171 2237 795 1268 470 285 
391 50 1864 183 3324 3558 3812 51 2637 
11 126 
METADATA
INFORMATION 0

RegionSpan 1 92 double
0.056336738169 0.049410589039 0.015625 0.015625 0.058463398367 0.071602746844 0.17815241218 0.015625 0.022097086534 
0.015625 0.054126586765 0.079672180116 0.095043167472 0.015625 0.015625 0.038273278624 0.068107798696 0.03125 
0.034938562661 0.14235052466 0.027063293383 0.015625 0.034938562661 0.068107798696 0.066291257739 0.265625 0.234375 
0.52291250229 0.48713928461 0.11048543453 0.015625 0.034938562661 0.03125 0.03125 0.015625 0.034938562661 
0.034938562661 0.015625 0.051822263747 0.015625 0.038273278624 0.051822263747 0.0732877478 0.015625 0.015625 
0.044194173068 0.022097086534 0.084143199027 0.10597390682 0.08558165282 0.15149000287 0.25483605266 0.14149039984 0.30217310786 
0.18879759312 0.3132802844 0.22857403755 0.29810601473 0.32400688529 0.28125 1.1580433846 0.21986323595 1.2605996132 
0.08558165282 0.2025231421 0.28555729985 0.47444456816 0.071602746844 0.43554249406 0.098821178079 0.80237072706 0.23644915223 
0.84099668264 0.19640320539 0.38937300444 0.27153354883 0.50389111042 0.21079277992 0.59580236673 0.55021303892 0.16682934761 
0.63353544474 0.4780330658 0.48361834884 0.46508988738 0.29064181447 0.66823142767 0.98747032881 0.51986891031 0.93515330553 
0.49063494802 0.47341430187 
METADATA
INFORMATION 0

POINT_DATA 93
FIELD FieldData 2
Scalar 1 93 float
0.636804 0.694307 0.681508 0.636711 0.667424 0.580478 0.603469 0.503267 0.601874 
0.525205 0.589509 0.481404 0.589493 0.527615 0.579247 0.52399 0.559774 0.521614 
0.55163 0.470134 0.535662 0.420837 0.530778 0.484052 0.512677 0.484456 0.512177 
0.483732 0.508765 0.462554 0.499116 0.430955 0.497298 0.49377 0.40248 0.459225 
0.409755 0.451801 0.450502 0.415374 0.440883 0.294587 0.318408 0.189693 0.272364 
0.191395 0.272166 0.189828 0.234683 0.189265 0.233611 0 0.049904 0.00053534 
0.0399854 0.00600324 0.010677 0.0593579 0.0188076 0.0408034 0.0189202 0.0431535 0.0207796 
0.0497575 0.0219426 0.0448618 0.0275646 0.0752342 0.0291665 0.0516407 0.0395022 0.068567 
0.0421419 0.0830631 0.0422628 0.0816701 0.0987622 0.13133 0.11228 0.146741 0.120752 
0.158675 0.133062 0.158305 0.133067 0.159992 0.134574 0.156233 0.187876 0.232481 
0.320065 0.35714 0.401543 
METADATA
INFORMATION 0

ttkMaskScalarField 1 93 char
0 0 0 0 0 0 0 0 0 
0 0 0 0 0 0 0 0 0 
0 0 0 0 0 0 0 0 0 
0 0 0 0 0 0 0 0 0 
0 0 0 0 0 0 0 0 0 
0 0 0 0 0 0 0 0 0 
0 0 0 0 0 0 0 0 0 
0 0 0 0 0 0 0 0 0 
0 0 0 0 0 0 0 0 0 
0 0 0 0 0 0 0 0 0 
0 0 0 
METADATA
INFORMATION 0

