# vtk DataFile Version 4.2
vtk output
ASCII
DATASET UNSTRUCTURED_GRID
POINTS 84 float
0.484375 1.15625 0.765625 0.5 1.35938 0.734375 0.46875 1.26562 0.640625 
0.484375 1.23438 0.640625 0.484375 1.26562 0.84375 0.46875 1.28125 0.875 
0.484375 1.20312 0.8125 0.46875 1.34375 0.640625 0.484375 1.09375 0.765625 
0.5 1.45312 0.703125 0.5 1.5 0.671875 0.46875 1.34375 0.71875 
0.4375 1.34375 0.734375 0.5 1.125 0.5625 0.453125 1.17188 0.53125 
0.484375 0.875 0.796875 0.484375 0.90625 0.8125 0.484375 1.04688 0.09375 
0.46875 1.07812 0.046875 0.484375 0.90625 0.640625 0.46875 0.90625 0.625 
0.46875 0.921875 0.84375 0.46875 0.90625 0.859375 0.5 1.125 0.03125 
0.5 1.15625 0 0.484375 1.09375 0.453125 0.484375 1.0625 0.421875 
0.484375 1.21875 0.953125 0.484375 1.17188 0.984375 0.421875 1.32812 0.78125 
0.390625 1.34375 0.78125 0.453125 1.01562 0.53125 0.46875 0.953125 0.53125 
0.515625 1.46875 0.765625 0.515625 1.48438 0.765625 0.484375 0.953125 0.9375 
0.484375 0.96875 0.984375 0.484375 1.03125 0.109375 0.515625 1.10938 0.03125 
0.453125 1.07812 0.9375 0.46875 1.04688 0.9375 0.46875 0.84375 0.5 
0.484375 0.90625 0.484375 0.421875 0.53125 0.21875 0.421875 0.53125 0.734375 
0.484375 0.578125 0.75 0.53125 0.53125 0.75 0.421875 0.53125 0 
0.53125 0.53125 0.234375 0.53125 0.53125 0 0.53125 1.9375 0.25 
0.46875 1.35938 0 0.46875 0.453125 0 0.53125 0.078125 0.421875 
0.734375 1.21875 0.65625 0.296875 1.21875 0.640625 0.3125 1.20312 0.640625 
0.375 1.29688 0.90625 0.359375 1.3125 0.921875 0.3125 1.125 0.765625 
0.328125 1.17188 0.8125 0.46875 1.32812 0.984375 0.515625 1.3125 0.984375 
0.5625 0.953125 0.25 0.59375 0.953125 0.25 0.390625 0.96875 0.203125 
0.359375 0.96875 0.21875 0.53125 1.14062 0.515625 0.546875 1.125 0.515625 
0.546875 1.125 0.546875 0.5625 1.09375 0.5625 0.515625 1.15625 0.5 
0.515625 1.14062 0.5 0.4375 1.25 0.609375 0.421875 1.23438 0.625 
0.4375 1.15625 0 0.4375 1.1875 0 0.53125 1.29688 0.875 
0.515625 1.32812 0.890625 0.5 1.29688 0.765625 0.46875 1.40625 0.6875 
0.5 1.09375 0.03125 0.46875 0.578125 0.734375 0.46875 0.96875 0.21875 

METADATA
INFORMATION 2
NAME L2_NORM_RANGE LOCATION vtkDataArray
DATA 2 0.651958 2.02451 
NAME L2_NORM_FINITE_RANGE LOCATION vtkDataArray
DATA 2 0.651958 2.02451 

CELLS 83 249
2 0 1 
2 2 3 
2 4 5 
2 4 6 
2 2 7 
2 0 8 
2 9 10 
2 11 12 
2 13 14 
2 15 16 
2 17 18 
2 19 20 
2 21 22 
2 23 24 
2 25 26 
2 27 28 
2 29 30 
2 31 32 
2 33 34 
2 35 36 
2 17 37 
2 23 38 
2 39 40 
2 41 42 
2 43 44 
2 45 46 
2 43 47 
2 48 49 
2 50 51 
2 52 53 
2 54 55 
2 56 55 
2 57 58 
2 59 60 
2 61 62 
2 63 64 
2 65 66 
2 67 68 
2 69 70 
2 71 72 
2 73 74 
2 75 76 
2 77 78 
2 79 4 
2 80 2 
2 9 0 
2 81 17 
2 81 23 
2 82 43 
2 55 60 
2 11 9 
2 83 81 
2 60 58 
2 79 11 
2 58 53 
2 80 79 
2 53 50 
2 15 80 
2 50 62 
2 19 15 
2 62 64 
2 21 19 
2 64 66 
2 13 21 
2 66 70 
2 25 13 
2 70 68 
2 29 25 
2 68 72 
2 31 29 
2 72 48 
2 27 31 
2 48 82 
2 33 27 
2 82 45 
2 35 33 
2 45 74 
2 39 35 
2 74 78 
2 41 39 
2 78 76 
2 83 41 
2 76 83 

CELL_TYPES 83
3
3
3
3
3
3
3
3
3
3
3
3
3
3
3
3
3
3
3
3
3
3
3
3
3
3
3
3
3
3
3
3
3
3
3
3
3
3
3
3
3
3
3
3
3
3
3
3
3
3
3
3
3
3
3
3
3
3
3
3
3
3
3
3
3
3
3
3
3
3
3
3
3
3
3
3
3
3
3
3
3
3
3

CELL_DATA 83
SCALARS SegmentationId int
LOOKUP_TABLE default
82 81 80 79 78 77 76 75 74 
73 72 71 70 69 68 67 66 65 
64 63 62 61 60 59 58 57 56 
55 54 0 1 2 3 4 5 6 
7 8 9 10 11 12 13 51 52 
53 46 43 34 15 50 29 17 49 
16 31 14 32 27 47 18 45 19 
44 20 48 22 42 21 40 23 39 
28 41 33 38 30 37 24 36 26 
35 25 
METADATA
INFORMATION 0

FIELD FieldData 4
upNodeId 1 83 int
0 2 4 6 7 8 9 11 13 
15 17 19 21 23 25 27 29 31 
33 35 37 38 39 41 43 45 47 
48 50 53 55 55 58 60 62 64 
66 68 70 72 74 76 78 5 3 
1 18 24 44 60 10 81 58 12 
53 79 51 80 62 16 64 20 66 
22 70 14 68 26 72 30 49 32 
82 28 46 34 74 36 78 40 76 
42 83 
METADATA
INFORMATION 0

downNodeId 1 83 int
1 3 5 5 3 1 10 12 14 
16 18 20 22 24 26 28 30 32 
34 36 18 24 40 42 44 46 44 
49 51 52 54 56 57 59 61 63 
65 67 69 71 73 75 77 79 80 
10 81 81 82 55 12 83 60 79 
58 80 53 16 51 20 62 22 64 
14 66 26 70 30 68 32 72 28 
49 34 82 36 46 40 74 42 78 
83 76 
METADATA
INFORMATION 0

RegionSize 1 83 int
74 17 32 18 14 9 5 6 38 
13 34 13 11 21 27 21 8 27 
5 29 20 1 1 8 557 458 76 
72 5672 7232 65448 13 4 14 6 17 
18 5 5 0 6 12 11 123 131 
23 34 20 6 100753 22 77 14400 98 
151572 66 1630 292 65192 132 71526 134 6080 
162 4799 308 315 197 453 46 11050 47 
40 14 27 233 278 176 2616 246 1500 
802 8506 
METADATA
INFORMATION 0

RegionSpan 1 83 double
0.20610789955 0.034938562661 0.038273278624 0.069877125323 0.078125 0.0625 0.056336738169 0.034938562661 0.0732877478 
0.034938562661 0.058463398367 0.022097086534 0.022097086534 0.044194173068 0.044194173068 0.056336738169 0.034938562661 0.064423523843 
0.015625 0.049410589039 0.022097086534 0.022097086534 0.034938562661 0.066291257739 0.515625 0.066291257739 0.21875 
0.234375 0.63295716047 0.56789940596 0.43777891994 0.022097086534 0.027063293383 0.068107798696 0.049410589039 0.03125 
0.034938562661 0.022097086534 0.038273278624 0.015625 0.027063293383 0.03125 0.038273278624 0.08558165282 0.14823175967 
0.30378472805 0.079672180116 0.03125 0.51986891031 0.18087245524 0.11481983215 0.22750343382 0.18087245524 0.0732877478 
1.3428412676 0.13799625635 1.8673019409 0.54261738062 0.9644562006 0.15934436023 0.82131636143 0.20432338119 0.23696485162 
0.34833589196 0.4183883667 0.11481983215 0.058463398367 0.40804889798 0.038273278624 0.40141353011 0.664935112 0.46927055717 
0.50606673956 0.31405860186 0.022097086534 0.54441410303 0.67096596956 0.12884704769 0.296875 0.49657025933 0.90503692627 
0.30777680874 0.31093356013 
METADATA
INFORMATION 0

POINT_DATA 84
FIELD FieldData 2
Scalar 1 84 float
0.590734 0.687321 0.593277 0.656669 0.592246 0.649454 0.641038 0.637222 0.626241 
0.580134 0.605013 0.573468 0.602663 0.485975 0.555839 0.508462 0.554514 0.436822 
0.54003 0.500422 0.533703 0.493895 0.525091 0.449899 0.524219 0.471635 0.519853 
0.458672 0.512781 0.462589 0.500208 0.460535 0.497766 0.458143 0.497739 0.449145 
0.486873 0.47874 0.472118 0.441855 0.472011 0.432783 0.462919 0.189738 0.272526 
0.189942 0.272257 0.240321 0.189093 0.233089 0.0499164 0.0816323 0 0.0499052 
0.000707115 0.0267094 0.00301657 0.00666784 0.0419648 0.0127478 0.040883 0.0289792 0.0508724 
0.0406672 0.0773021 0.0493564 0.0923709 0.0663071 0.110554 0.0744198 0.109264 0.0907276 
0.112775 0.170163 0.193534 0.182495 0.253555 0.209683 0.232098 0.542456 0.533008 
0.424601 0.189417 0.407786 
METADATA
INFORMATION 0

ttkMaskScalarField 1 84 char
0 0 0 0 0 0 0 0 0 
0 0 0 0 0 0 0 0 0 
0 0 0 0 0 0 0 0 0 
0 0 0 0 0 0 0 0 0 
0 0 0 0 0 0 0 0 0 
0 0 0 0 0 0 0 0 0 
0 0 0 0 0 0 0 0 0 
0 0 0 0 0 0 0 0 0 
0 0 0 0 0 0 0 0 0 
0 0 0 
METADATA
INFORMATION 0

