# vtk DataFile Version 4.2
vtk output
ASCII
DATASET UNSTRUCTURED_GRID
POINTS 78 float
0.46875 1.29688 0.765625 0.484375 1.34375 0.796875 0.484375 1.3125 0.703125 
0.484375 1.375 0.6875 0.46875 1.3125 0.75 0.484375 1.23438 0.625 
0.5 1.29688 0.625 0.46875 1.21875 0.625 0.484375 1.1875 0.703125 
0.484375 1.125 0.703125 0.484375 1.28125 0.609375 0.484375 1.29688 0.609375 
0.4375 1.125 0.59375 0.46875 1.07812 0.578125 0.484375 1.10938 0.53125 
0.484375 1.09375 0.453125 0.46875 1.01562 0.828125 0.484375 1 0.8125 
0.484375 1.04688 0.65625 0.484375 0.96875 0.640625 0.46875 1.09375 0.9375 
0.46875 1.14062 0.9375 0.484375 1.04688 0.03125 0.46875 1.04688 0.046875 
0.484375 1.01562 0.40625 0.46875 1 0.375 0.46875 0.859375 0.953125 
0.484375 0.9375 0.96875 0.484375 0.96875 0.921875 0.484375 0.875 0.921875 
0.46875 0.84375 0.625 0.484375 0.84375 0.609375 0.5 1.07812 0.03125 
0.484375 0.890625 0.5 0.484375 0.859375 0.5 0.46875 1.01562 0.078125 
0.484375 1 0.09375 0.5 0.984375 0.453125 0.46875 0.90625 0.453125 
0.46875 0.9375 0.25 0.484375 0.9375 0.21875 0.453125 0.96875 0.015625 
0.46875 0.84375 0 0.4375 1.07812 0.984375 0.421875 1.10938 0.984375 
0.484375 0.578125 0.78125 0.53125 0.53125 0.734375 0.46875 0.578125 0.796875 
0.421875 0.53125 0.703125 0.53125 0.53125 0.234375 0.53125 0.53125 0.015625 
0.421875 0.53125 0.234375 0.421875 0.53125 0 0.46875 1.95312 0.234375 
0.484375 1.39062 0 0.46875 0.453125 0 0.265625 0.046875 0.40625 
0.21875 1.14062 0.703125 0.6875 1.14062 0.765625 0.65625 1.125 0.734375 
0.3125 1.09375 0.734375 0.328125 1.14062 0.65625 0.375 1.23438 0.609375 
0.34375 1.21875 0.625 0.390625 0.9375 0.234375 0.359375 0.9375 0.234375 
0.5625 0.9375 0.265625 0.578125 0.9375 0.28125 0.578125 1.15625 0.8125 
0.59375 1.17188 0.828125 0.453125 1.14062 0 0.453125 1.17188 0 
0.453125 1.32812 0.625 0.40625 1.29688 0.65625 0.453125 1.28125 0.8125 
0.4375 1.3125 0.84375 0.5 1.28125 0.671875 0.484375 0.9375 0.203125 

METADATA
INFORMATION 2
NAME L2_NORM_RANGE LOCATION vtkDataArray
DATA 2 0.48764 2.02222 
NAME L2_NORM_FINITE_RANGE LOCATION vtkDataArray
DATA 2 0.48764 2.02222 

CELLS 77 231
2 0 1 
2 2 3 
2 2 4 
2 5 6 
2 5 7 
2 8 9 
2 10 11 
2 12 13 
2 14 15 
2 16 17 
2 18 19 
2 20 21 
2 22 23 
2 24 25 
2 26 27 
2 28 29 
2 30 31 
2 22 32 
2 33 34 
2 35 36 
2 37 38 
2 39 40 
2 41 42 
2 43 44 
2 45 46 
2 47 48 
2 49 50 
2 51 52 
2 53 54 
2 55 56 
2 57 58 
2 59 58 
2 60 61 
2 62 63 
2 64 65 
2 66 67 
2 68 69 
2 70 71 
2 72 73 
2 74 75 
2 0 2 
2 76 5 
2 35 22 
2 58 61 
2 8 0 
2 77 35 
2 61 63 
2 76 8 
2 63 56 
2 10 76 
2 56 53 
2 12 10 
2 53 65 
2 18 12 
2 65 67 
2 20 18 
2 67 69 
2 16 20 
2 69 51 
2 28 16 
2 51 47 
2 30 28 
2 47 49 
2 26 30 
2 49 45 
2 14 26 
2 45 73 
2 33 14 
2 73 71 
2 24 33 
2 71 43 
2 39 24 
2 43 75 
2 77 39 
2 75 41 
2 37 77 
2 41 37 

CELL_TYPES 77
3
3
3
3
3
3
3
3
3
3
3
3
3
3
3
3
3
3
3
3
3
3
3
3
3
3
3
3
3
3
3
3
3
3
3
3
3
3
3
3
3
3
3
3
3
3
3
3
3
3
3
3
3
3
3
3
3
3
3
3
3
3
3
3
3
3
3
3
3
3
3
3
3
3
3
3
3

CELL_DATA 77
SCALARS SegmentationId int
LOOKUP_TABLE default
76 75 74 73 72 71 70 69 68 
67 66 65 64 63 62 61 60 59 
58 57 56 55 54 53 52 51 50 
49 48 0 1 2 3 4 5 6 
7 8 9 10 46 45 37 12 47 
31 13 44 14 25 11 43 21 42 
15 39 16 38 17 40 27 34 26 
33 28 35 23 41 19 32 18 36 
22 29 20 24 30 
METADATA
INFORMATION 0

FIELD FieldData 4
upNodeId 1 77 int
0 2 4 5 7 8 10 12 14 
16 18 20 22 24 26 28 30 32 
33 35 37 39 41 43 45 47 49 
51 53 56 58 58 61 63 65 67 
69 71 73 75 3 6 23 61 1 
36 63 9 56 76 54 11 65 13 
67 19 69 21 52 17 48 29 50 
31 46 27 73 15 71 34 44 25 
75 40 42 77 38 
METADATA
INFORMATION 0

downNodeId 1 77 int
1 3 3 6 6 9 11 13 15 
17 19 21 23 25 27 29 31 23 
34 36 38 40 42 44 46 48 50 
52 54 55 57 59 60 62 64 66 
68 70 72 74 1 76 36 58 9 
77 61 76 63 11 56 13 54 19 
65 21 67 17 69 29 52 31 48 
27 50 15 46 34 73 25 71 40 
44 77 75 38 42 
METADATA
INFORMATION 0

RegionSize 1 77 int
49 7 16 10 9 6 0 17 57 
16 16 13 13 39 11 16 10 7 
5 30 17 5 22 4 451 574 66 
79 5687 7289 55281 12 12 5 12 12 
9 2 11 7 31 25 54 68538 53 
0 28185 134 178776 197 18182 329 121211 67 
2653 126 18308 179 3577 331 83 40 7 
519 0 71 5529 418 16 324 1 53 
5022 17 683 409 158 
METADATA
INFORMATION 0

RegionSpan 1 77 double
0.058463398367 0.064423523843 0.049410589039 0.064423523843 0.022097086534 0.0625 0.015625 0.058463398367 0.079672180116 
0.027063293383 0.079672180116 0.046875 0.022097086534 0.038273278624 0.081189878285 0.09375 0.022097086534 0.034938562661 
0.03125 0.027063293383 0.084143199027 0.034938562661 0.12693810463 0.034938562661 0.081189878285 0.11481983215 0.21875 
0.234375 0.60957527161 0.609375 0.47289830446 0.046875 0.092438749969 0.038273278624 0.03125 0.022097086534 
0.027063293383 0.03125 0.064423523843 0.046875 0.066291257739 0.068107798696 0.058463398367 0.37565046549 0.12693810463 
0.14823175967 0.08558165282 0.10004881769 1.194674015 0.064423523843 1.9247311354 0.1638763845 1.021497488 0.11048543453 
0.22371596098 0.28555729985 0.59518742561 0.13441133499 0.89021372795 0.10597390682 0.56639277935 0.32249635458 0.56789940596 
0.32849681377 0.55087822676 0.49063494802 0.73370981216 0.22097086906 0.66969120502 0.15625 0.98895263672 0.17539018393 
0.2733258605 0.049410589039 0.89677155018 0.25483605266 0.44028133154 
METADATA
INFORMATION 0

POINT_DATA 78
FIELD FieldData 2
Scalar 1 78 float
0.619802 0.678735 0.643605 0.674117 0.665428 0.597692 0.640043 0.635623 0.606752 
0.634456 0.549638 0.576622 0.514465 0.563519 0.442345 0.555078 0.487976 0.544659 
0.507328 0.531605 0.499539 0.531377 0.456933 0.505338 0.414287 0.500986 0.446037 
0.499245 0.470478 0.496664 0.468247 0.4911 0.483855 0.425995 0.462343 0.412427 
0.448349 0.400058 0.448216 0.412136 0.435591 0.395727 0.429762 0.279723 0.317631 
0.189672 0.272065 0.189604 0.27202 0.189672 0.236578 0.188594 0.233173 0.050008 
0.0800684 0 0.0499056 0.000386382 0.0262968 0.00412047 0.0131891 0.037337 0.016151 
0.0405869 0.0294193 0.0722889 0.0389336 0.0767453 0.106557 0.158216 0.255385 0.279689 
0.255799 0.279412 0.355482 0.377056 0.575271 0.411152 
METADATA
INFORMATION 0

ttkMaskScalarField 1 78 char
0 0 0 0 0 0 0 0 0 
0 0 0 0 0 0 0 0 0 
0 0 0 0 0 0 0 0 0 
0 0 0 0 0 0 0 0 0 
0 0 0 0 0 0 0 0 0 
0 0 0 0 0 0 0 0 0 
0 0 0 0 0 0 0 0 0 
0 0 0 0 0 0 0 0 0 
0 0 0 0 0 0 
METADATA
INFORMATION 0

