# vtk DataFile Version 4.2
vtk output
ASCII
DATASET UNSTRUCTURED_GRID
POINTS 54 float
0.484375 1.21875 0.796875 0.46875 1.23438 0.8125 0.46875 1.21875 0.765625 
0.5 1.15625 0.65625 0.46875 1.10938 0.546875 0.5 1.20312 0.703125 
0.5 1.1875 0.6875 0.46875 1.23438 0.890625 0.46875 1.21875 0.890625 
0.453125 1.03125 0.734375 0.46875 1 0.71875 0.484375 0.984375 0.0625 
0.453125 1.03125 0.015625 0.46875 0.921875 0.578125 0.46875 0.90625 0.59375 
0.484375 1.03125 0.984375 0.46875 1.04688 0.984375 0.46875 1 0.5625 
0.484375 0.9375 0.53125 0.484375 0.921875 0.90625 0.484375 0.890625 0.921875 
0.484375 0.96875 0.078125 0.46875 0.859375 0.953125 0.46875 0.84375 0.96875 
0.46875 0.9375 0.375 0.484375 0.90625 0.328125 0.484375 0.859375 0.03125 
0.484375 0.828125 0.015625 0.484375 0.578125 0.75 0.53125 0.53125 0.75 
0.46875 0.578125 0.703125 0.421875 0.53125 0.71875 0.421875 0.53125 0.21875 
0.421875 0.53125 0 0.53125 0.53125 0.296875 0.53125 0.53125 0 
0.46875 0.453125 0 0.53125 0.0625 0.375 0.21875 1.09375 0.734375 
0.328125 1.125 0.578125 0.359375 1.125 0.609375 0.59375 1.125 0.90625 
0.59375 1.14062 0.953125 0.59375 1.07812 0.578125 0.609375 1.09375 0.5625 
0.546875 1.23438 0.5625 0.5625 1.21875 0.5625 0.359375 1.1875 0.875 
0.34375 1.1875 0.875 0.625 1.0625 0.765625 0.625 1.0625 0.71875 
0.390625 0.890625 0.25 0.375 0.890625 0.25 0.46875 0.890625 0.234375 

METADATA
INFORMATION 2
NAME L2_NORM_RANGE LOCATION vtkDataArray
DATA 2 0.651958 1.60063 
NAME L2_NORM_FINITE_RANGE LOCATION vtkDataArray
DATA 2 0.651958 1.60063 

CELLS 53 159
2 0 1 
2 0 2 
2 3 4 
2 5 6 
2 7 8 
2 9 10 
2 11 12 
2 13 14 
2 15 16 
2 17 18 
2 19 20 
2 11 21 
2 22 23 
2 24 25 
2 26 27 
2 28 29 
2 30 31 
2 32 33 
2 34 35 
2 36 37 
2 38 39 
2 40 39 
2 41 42 
2 43 44 
2 45 46 
2 47 48 
2 49 50 
2 51 52 
2 7 0 
2 53 11 
2 39 46 
2 5 7 
2 46 42 
2 3 5 
2 42 50 
2 9 3 
2 50 48 
2 15 9 
2 48 37 
2 17 15 
2 37 44 
2 13 17 
2 44 52 
2 19 13 
2 52 32 
2 22 19 
2 32 34 
2 24 22 
2 34 28 
2 53 24 
2 28 30 
2 26 53 
2 30 26 

CELL_TYPES 53
3
3
3
3
3
3
3
3
3
3
3
3
3
3
3
3
3
3
3
3
3
3
3
3
3
3
3
3
3
3
3
3
3
3
3
3
3
3
3
3
3
3
3
3
3
3
3
3
3
3
3
3
3

CELL_DATA 53
SCALARS SegmentationId int
LOOKUP_TABLE default
52 51 50 49 48 47 46 45 44 
43 42 41 40 39 38 37 36 35 
34 0 1 2 3 4 5 6 7 
8 33 28 10 30 13 31 11 32 
15 29 14 26 9 25 12 27 16 
24 18 23 20 22 19 17 21 
METADATA
INFORMATION 0

FIELD FieldData 4
upNodeId 1 53 int
0 2 3 5 7 9 11 13 15 
17 19 21 22 24 26 28 30 32 
34 37 39 39 42 44 46 48 50 
52 1 12 46 8 42 6 50 4 
48 10 37 16 44 18 52 14 33 
20 35 23 29 25 31 53 27 
METADATA
INFORMATION 0

downNodeId 1 53 int
1 1 4 6 8 10 12 14 16 
18 20 12 23 25 27 29 31 33 
35 36 38 40 41 43 45 47 49 
51 8 53 39 6 46 4 42 10 
50 16 48 18 37 14 44 20 52 
23 33 25 35 53 29 27 31 
METADATA
INFORMATION 0

RegionSize 1 53 int
8 5 56 31 0 8 38 5 4 
16 9 9 8 11 25 450 548 94 
75 6752 82367 4 5 5 7 2 20 
12 190 130 27211 12 26841 51 115242 176 
12354 577 59201 100 104405 42 49168 335 26307 
688 363 255 126 386 12 762 8726 
METADATA
INFORMATION 0

RegionSpan 1 53 double
0.027063293383 0.034938562661 0.12303137034 0.022097086534 0.015625 0.038273278624 0.0732877478 0.022097086534 0.022097086534 
0.071602746844 0.034938562661 0.022097086534 0.022097086534 0.058463398367 0.034938562661 0.066291257739 0.068107798696 0.21875 
0.296875 0.54508638382 0.19327057898 0.044194173068 0.049410589039 0.027063293383 0.022097086534 0.015625 0.046875 
0.015625 0.09631896764 0.19640320539 0.25291272998 0.19263793528 0.3995847404 0.066291257739 0.24902151525 0.15467961133 
0.34516751766 0.25194555521 1.2453036308 0.42331928015 1.0510643721 0.079672180116 0.44028133154 0.32849681377 0.36376395822 
0.079672180116 0.13441133499 0.58337980509 0.45794847608 0.14823175967 0.049410589039 0.20610789955 0.72853392363 
METADATA
INFORMATION 0

POINT_DATA 54
FIELD FieldData 2
Scalar 1 54 float
0.633343 0.666308 0.660931 0.548456 0.610581 0.559557 0.608016 0.561345 0.583091 
0.530054 0.562151 0.457996 0.548871 0.476594 0.513762 0.485176 0.511612 0.478328 
0.509051 0.458072 0.49628 0.496132 0.422596 0.444986 0.410999 0.442113 0.373205 
0.408727 0.190381 0.27308 0.190586 0.27292 0.184884 0.233918 0.188662 0.233609 
0 0.0499122 0.000373391 0.0338383 0.00948549 0.0145064 0.0410728 0.0146797 0.0518192 
0.0151111 0.0380236 0.0206024 0.0489691 0.0236001 0.0486589 0.0408049 0.0671686 0.396682 

METADATA
INFORMATION 0

ttkMaskScalarField 1 54 char
0 0 0 0 0 0 0 0 0 
0 0 0 0 0 0 0 0 0 
0 0 0 0 0 0 0 0 0 
0 0 0 0 0 0 0 0 0 
0 0 0 0 0 0 0 0 0 
0 0 0 0 0 0 0 0 0 

METADATA
INFORMATION 0

