# vtk DataFile Version 4.2
vtk output
ASCII
DATASET UNSTRUCTURED_GRID
POINTS 88 float
0.484375 1.35938 0.8125 0.484375 1.39062 0.796875 0.484375 1.35938 0.703125 
0.46875 1.35938 0.75 0.484375 1.42188 0.6875 0.453125 1.29688 0.84375 
0.484375 1.26562 0.6875 0.484375 1.14062 0.703125 0.484375 1.29688 0.625 
0.5 1.32812 0.625 0.453125 1.25 0.625 0.4375 1.17188 0.578125 
0.46875 1.10938 0.578125 0.515625 1.125 0.484375 0.484375 1.10938 0.453125 
0.46875 1.0625 0.8125 0.484375 1.03125 0.8125 0.484375 0.96875 0.8125 
0.484375 0.90625 0.8125 0.484375 0.9375 0.671875 0.484375 0.90625 0.640625 
0.46875 1.17188 0.953125 0.484375 1.17188 0.953125 0.46875 1.03125 0.0625 
0.46875 1.07812 0.046875 0.46875 0.859375 0.953125 0.484375 0.96875 0.96875 
0.484375 0.921875 0.90625 0.484375 0.90625 0.921875 0.484375 1.04688 0.40625 
0.46875 1.01562 0.375 0.484375 1.03125 0.578125 0.484375 0.96875 0.578125 
0.46875 0.84375 0.625 0.484375 0.859375 0.609375 0.484375 0.90625 0.515625 
0.484375 0.890625 0.5 0.46875 0.96875 0.09375 0.46875 0.953125 0.453125 
0.46875 0.921875 0.453125 0.484375 0.96875 0.453125 0.484375 0.96875 0.203125 
0.484375 0.953125 0.21875 0.46875 0.90625 0 0.46875 0.875 0 
0.46875 0.953125 0.1875 0.46875 0.96875 0.015625 0.453125 0.9375 0 
0.4375 1.07812 0.984375 0.421875 1.10938 0.984375 0.53125 0.53125 0.234375 
0.53125 0.53125 0.734375 0.46875 0.578125 0.796875 0.421875 0.53125 0.75 
0.53125 0.53125 0.015625 0.421875 0.53125 0.234375 0.421875 0.53125 0 
0.53125 1.9375 0.3125 0.484375 1.40625 0 0.46875 0.453125 0 
0.53125 0.125 0.40625 0.28125 1.21875 0.921875 0.53125 1.32812 0.984375 
0.3125 1.125 0.71875 0.328125 1.15625 0.671875 0.5 1.32812 0.96875 
0.46875 1.32812 0.53125 0.453125 1.32812 0.53125 0.5625 0.9375 0.234375 
0.59375 0.9375 0.28125 0.390625 0.9375 0.25 0.359375 0.953125 0.234375 
0.578125 1.1875 0.8125 0.59375 1.20312 0.828125 0.421875 1.09375 0.453125 
0.40625 1.09375 0.46875 0.4375 1.17188 0.953125 0.421875 1.17188 0.9375 
0.453125 1.1875 0.96875 0.453125 1.17188 0.96875 0.453125 1.29688 0.796875 
0.4375 1.29688 0.78125 0.46875 1.35938 0.765625 0.5 1.34375 0.65625 
0.5 0.984375 0.453125 0.46875 0.96875 0.15625 0.484375 0.578125 0.78125 
0.46875 0.96875 0.25 
METADATA
INFORMATION 2
NAME L2_NORM_RANGE LOCATION vtkDataArray
DATA 2 0.651958 2.03317 
NAME L2_NORM_FINITE_RANGE LOCATION vtkDataArray
DATA 2 0.651958 2.03317 

CELLS 87 261
2 0 1 
2 2 3 
2 2 4 
2 0 5 
2 6 7 
2 8 9 
2 8 10 
2 11 12 
2 13 14 
2 15 16 
2 17 18 
2 19 20 
2 21 22 
2 23 24 
2 25 26 
2 27 28 
2 29 30 
2 31 32 
2 33 34 
2 35 36 
2 23 37 
2 38 39 
2 38 40 
2 41 42 
2 43 44 
2 41 45 
2 46 47 
2 48 49 
2 50 51 
2 52 53 
2 50 54 
2 55 56 
2 57 58 
2 59 60 
2 61 62 
2 63 64 
2 65 62 
2 66 67 
2 68 69 
2 70 71 
2 72 73 
2 74 75 
2 76 77 
2 78 79 
2 80 81 
2 82 2 
2 82 0 
2 83 8 
2 46 23 
2 84 38 
2 85 41 
2 86 50 
2 62 64 
2 6 82 
2 43 46 
2 64 57 
2 83 6 
2 85 43 
2 57 60 
2 11 83 
2 87 85 
2 60 67 
2 15 11 
2 67 71 
2 17 15 
2 71 69 
2 19 17 
2 69 75 
2 21 19 
2 75 73 
2 27 21 
2 73 77 
2 31 27 
2 77 55 
2 33 31 
2 55 86 
2 25 33 
2 86 52 
2 35 25 
2 52 79 
2 13 35 
2 79 48 
2 84 13 
2 48 81 
2 29 84 
2 81 87 
2 87 29 

CELL_TYPES 87
3
3
3
3
3
3
3
3
3
3
3
3
3
3
3
3
3
3
3
3
3
3
3
3
3
3
3
3
3
3
3
3
3
3
3
3
3
3
3
3
3
3
3
3
3
3
3
3
3
3
3
3
3
3
3
3
3
3
3
3
3
3
3
3
3
3
3
3
3
3
3
3
3
3
3
3
3
3
3
3
3
3
3
3
3
3
3

CELL_DATA 87
SCALARS SegmentationId int
LOOKUP_TABLE default
86 85 84 83 82 81 80 79 78 
77 76 75 74 73 72 71 70 69 
68 67 66 65 64 63 62 61 60 
59 58 57 56 55 54 0 1 2 
3 4 5 6 7 8 9 10 11 
52 53 50 43 36 35 32 13 30 
33 14 51 34 23 29 26 12 49 
15 47 17 46 16 45 19 44 18 
41 20 39 24 38 31 42 27 37 
21 48 25 28 22 40 
METADATA
INFORMATION 0

FIELD FieldData 4
upNodeId 1 87 int
0 2 4 5 6 8 10 11 13 
15 17 19 21 23 25 27 29 31 
33 35 37 38 40 41 43 45 46 
48 50 52 54 55 57 60 62 64 
62 67 69 71 73 75 77 79 81 
3 1 9 24 39 42 51 64 82 
47 58 7 44 60 83 85 67 12 
71 16 69 18 75 20 73 22 77 
28 56 32 86 34 53 26 79 36 
49 14 81 84 87 30 
METADATA
INFORMATION 0

downNodeId 1 87 int
1 3 3 1 7 9 9 12 14 
16 18 20 22 24 26 28 30 32 
34 36 24 39 39 42 44 42 47 
49 51 53 51 56 58 59 61 63 
65 66 68 70 72 74 76 78 80 
82 82 83 47 84 85 86 62 7 
44 64 83 85 58 12 87 60 16 
67 18 71 20 69 22 75 28 73 
32 77 34 56 26 86 36 53 14 
79 84 49 30 81 87 
METADATA
INFORMATION 0

RegionSize 1 87 int
31 17 5 12 16 5 15 19 64 
6 7 21 2 61 11 15 57 9 
11 5 23 6 3 9 6 9 7 
7 452 575 66 86 5507 7363 123933 11 
1 0 16 14 12 2 3 0 8 
33 7 39 32 0 1 0 10167 119 
10 195835 99 10 3820 390 0 121555 215 
14167 42 3584 60 16377 121 3069 300 51 
125 1349 4 168 443 3 373 2206 11 
2512 708 7082 2 377 226 
METADATA
INFORMATION 0

RegionSpan 1 87 double
0.034938562661 0.049410589039 0.064423523843 0.076546557248 0.12597277761 0.034938562661 0.056336738169 0.069877125323 0.046875 
0.034938562661 0.0625 0.044194173068 0.015625 0.049410589039 0.11158481985 0.022097086534 0.046875 0.0625 
0.027063293383 0.022097086534 0.069877125323 0.03125 0.022097086534 0.022097086534 0.03125 0.027063293383 0.038273278624 
0.034938562661 0.5 0.081189878285 0.21875 0.234375 0.61812627316 0.52593851089 0.2799448967 0.058463398367 
0.034938562661 0.015625 0.056336738169 0.038273278624 0.027063293383 0.022097086534 0.022097086534 0.015625 0.022097086534 
0.064423523843 0.049410589039 0.058463398367 0.078125 0.044194173068 0.049410589039 0.55087822676 0.41043516994 0.12303137034 
0.064423523843 0.88360720873 0.08558165282 0.16828639805 1.8149229288 0.19887378812 0.09375 1.2121213675 0.26052081585 
0.48738980293 0.095043167472 0.23952671885 0.14405538142 0.30777680874 0.36643871665 0.41984465718 0.25483605266 0.20610789955 
0.34587413073 0.95120197535 0.19390115142 0.55242717266 0.32849681377 0.022097086534 0.44028133154 0.61832374334 0.22316963971 
0.09631896764 0.14490029216 0.29851520061 0.079672180116 0.62519526482 0.17539018393 
METADATA
INFORMATION 0

POINT_DATA 88
FIELD FieldData 2
Scalar 1 88 float
0.624714 0.673004 0.639043 0.666609 0.664492 0.654587 0.587718 0.648298 0.602066 
0.638613 0.63161 0.526114 0.566145 0.436829 0.546653 0.508806 0.545941 0.506018 
0.541832 0.501556 0.53661 0.49408 0.515863 0.421679 0.510487 0.452686 0.508778 
0.477503 0.505455 0.410998 0.504042 0.471625 0.499044 0.471232 0.498411 0.43703 
0.476931 0.458204 0.412671 0.450665 0.449638 0.40586 0.439818 0.406714 0.437888 
0.435635 0.409609 0.431256 0.261558 0.294684 0.189594 0.27251 0.189599 0.271918 
0.23647 0.187529 0.233148 0.0498806 0.0824642 0 0.0499152 0.000590489 0.0365796 
0.00576053 0.0378318 0.0149986 0.0161004 0.0603151 0.0293566 0.0797668 0.0377376 0.0733542 
0.103317 0.175348 0.128303 0.15221 0.154277 0.17593 0.196291 0.223906 0.365287 
0.394674 0.621252 0.570382 0.411259 0.404671 0.18957 0.404615 
METADATA
INFORMATION 0

ttkMaskScalarField 1 88 char
0 0 0 0 0 0 0 0 0 
0 0 0 0 0 0 0 0 0 
0 0 0 0 0 0 0 0 0 
0 0 0 0 0 0 0 0 0 
0 0 0 0 0 0 0 0 0 
0 0 0 0 0 0 0 0 0 
0 0 0 0 0 0 0 0 0 
0 0 0 0 0 0 0 0 0 
0 0 0 0 0 0 0 0 0 
0 0 0 0 0 0 0 
METADATA
INFORMATION 0

