# vtk DataFile Version 4.2
vtk output
ASCII
DATASET UNSTRUCTURED_GRID
POINTS 52 float
0.46875 1.125 0.75 0.46875 1.14062 0.765625 0.46875 1.21875 0.6875 
0.46875 1.15625 0.703125 0.46875 1.17188 0.65625 0.453125 1.125 0.859375 
0.453125 1.15625 0.890625 0.484375 1.14062 0.84375 0.453125 1.07812 0.90625 
0.484375 1.03125 0.953125 0.484375 1.0625 0.84375 0.484375 1 0.84375 
0.46875 0.984375 0.671875 0.46875 0.953125 0.671875 0.484375 1.04688 0.53125 
0.5 1.01562 0.53125 0.46875 1.04688 0.890625 0.46875 1.01562 0.890625 
0.484375 0.984375 0.5625 0.484375 0.96875 0.5625 0.484375 0.875 0.234375 
0.484375 1.01562 0.015625 0.46875 0.921875 0.015625 0.46875 0.875 0 
0.46875 0.578125 0.734375 0.421875 0.53125 0.71875 0.484375 0.578125 0.75 
0.53125 0.53125 0.734375 0.53125 0.53125 0.234375 0.53125 0.53125 0 
0.421875 0.53125 0.25 0.421875 0.53125 0 0.46875 0.453125 0 
0.765625 0.046875 0.375 0.25 1.09375 0.890625 0.484375 1.17188 0.5 
0.6875 1.09375 0.5625 0.328125 1.01562 0.734375 0.3125 1.03125 0.75 
0.359375 1.09375 0.84375 0.3125 1.10938 0.859375 0.609375 1.09375 0.625 
0.609375 1.0625 0.671875 0.359375 1.14062 0.609375 0.328125 1.125 0.625 
0.40625 0.875 0.265625 0.375 0.875 0.28125 0.59375 1.07812 0.921875 
0.609375 1.09375 0.953125 0.546875 0.875 0.234375 0.578125 0.875 0.234375 
0.5 1.15625 0.8125 
METADATA
INFORMATION 2
NAME L2_NORM_RANGE LOCATION vtkDataArray
DATA 2 0.651958 1.57355 
NAME L2_NORM_FINITE_RANGE LOCATION vtkDataArray
DATA 2 0.651958 1.57355 

CELLS 51 153
2 0 1 
2 2 3 
2 2 4 
2 5 6 
2 5 7 
2 8 9 
2 10 11 
2 12 13 
2 14 15 
2 16 17 
2 18 19 
2 20 21 
2 22 23 
2 24 25 
2 26 27 
2 28 29 
2 30 31 
2 32 33 
2 34 35 
2 36 35 
2 37 38 
2 39 40 
2 41 42 
2 43 44 
2 45 46 
2 47 48 
2 49 50 
2 0 2 
2 51 5 
2 35 42 
2 51 0 
2 42 40 
2 8 51 
2 40 44 
2 10 8 
2 44 38 
2 12 10 
2 38 33 
2 14 12 
2 33 48 
2 16 14 
2 48 50 
2 18 16 
2 50 46 
2 20 18 
2 46 28 
2 22 20 
2 28 26 
2 24 22 
2 26 30 
2 30 24 

CELL_TYPES 51
3
3
3
3
3
3
3
3
3
3
3
3
3
3
3
3
3
3
3
3
3
3
3
3
3
3
3
3
3
3
3
3
3
3
3
3
3
3
3
3
3
3
3
3
3
3
3
3
3
3
3

CELL_DATA 51
SCALARS SegmentationId int
LOOKUP_TABLE default
50 49 48 47 46 45 44 43 42 
41 40 39 38 37 36 35 34 0 
1 2 3 4 5 6 7 8 9 
32 31 11 33 14 19 13 30 15 
29 12 28 10 27 17 26 18 25 
16 24 21 23 20 22 
METADATA
INFORMATION 0

FIELD FieldData 4
upNodeId 1 51 int
0 2 4 5 7 8 10 12 14 
16 18 20 22 24 26 28 30 33 
35 35 38 40 42 44 46 48 50 
3 6 42 1 40 51 44 9 38 
11 33 13 48 15 50 17 46 19 
29 21 27 23 31 25 
METADATA
INFORMATION 0

downNodeId 1 51 int
1 3 3 6 6 9 11 13 15 
17 19 21 23 25 27 29 31 32 
34 36 37 39 41 43 45 47 49 
1 51 35 51 42 9 40 11 44 
13 38 15 33 17 48 19 50 21 
46 23 29 25 27 31 
METADATA
INFORMATION 0

RegionSize 1 51 int
31 15 12 11 5 12 7 3 5 
6 21 157 24 548 457 62 77 6036 
23035 24655 7 17 7 11 7 10 10 
12 12 30595 152 7662 66 18264 83 6204 
98 206612 132 151613 48 7187 889 3456 1116 
25887 248 21 8578 7 46 
METADATA
INFORMATION 0

RegionSpan 1 51 double
0.022097086534 0.064423523843 0.056336738169 0.044194173068 0.038273278624 0.0732877478 0.0625 0.03125 0.034938562661 
0.03125 0.015625 0.2600518167 0.049410589039 0.068107798696 0.068107798696 0.234375 0.25 0.62753391266 
0.46219372749 0.2264277637 0.027063293383 0.051822263747 0.056336738169 0.038273278624 0.034938562661 0.038273278624 0.03125 
0.11267347634 0.0732877478 0.2390165329 0.076546557248 0.3542432487 0.13072812557 0.23541435599 0.071602746844 0.15702930093 
0.18944305182 1.1467089653 0.15467961133 1.2060637474 0.35971450806 0.751950562 0.33438959718 0.20846350491 0.34587413073 
0.3804936111 0.22426094115 0.51986891031 0.79672181606 0.50606673956 0.48889023066 
METADATA
INFORMATION 0

POINT_DATA 52
FIELD FieldData 2
Scalar 1 52 float
0.612058 0.672255 0.616636 0.655707 0.639749 0.58033 0.63483 0.603954 0.558827 
0.586 0.548975 0.573135 0.535476 0.560404 0.520945 0.550582 0.515721 0.545876 
0.454479 0.509232 0.397008 0.502224 0.388572 0.435134 0.19085 0.272927 0.190115 
0.271745 0.189804 0.233439 0.190262 0.233308 0 0.0498852 0.00118932 0.0286078 
0.00161121 0.00920177 0.0387563 0.0102343 0.0351376 0.0111624 0.033868 0.013313 0.037916 
0.0260206 0.0676674 0.0273632 0.059579 0.0312531 0.0642815 0.568834 
METADATA
INFORMATION 0

ttkMaskScalarField 1 52 char
0 0 0 0 0 0 0 0 0 
0 0 0 0 0 0 0 0 0 
0 0 0 0 0 0 0 0 0 
0 0 0 0 0 0 0 0 0 
0 0 0 0 0 0 0 0 0 
0 0 0 0 0 0 0 
METADATA
INFORMATION 0

