# vtk DataFile Version 4.2
vtk output
ASCII
DATASET UNSTRUCTURED_GRID
POINTS 58 float
0.484375 1.1875 0.703125 0.484375 1.29688 0.71875 0.46875 1.14062 0.828125 
0.453125 1.21875 0.890625 0.46875 1.125 0.8125 0.5 1.15625 0.6875 
0.5 1.1875 0.640625 0.5 1.20312 0.6875 0.46875 1.17188 0.609375 
0.484375 1.125 0.5625 0.484375 1.15625 0.921875 0.5 1.125 0.953125 
0.484375 1.09375 0.671875 0.484375 1.04688 0.671875 0.46875 1.03125 0.65625 
0.46875 1 0.640625 0.46875 0.90625 0.03125 0.484375 1.0625 0.015625 
0.46875 0.859375 0.890625 0.484375 0.90625 0.90625 0.46875 0.890625 0.953125 
0.46875 0.9375 0.953125 0.484375 0.96875 0.390625 0.484375 0.953125 0.375 
0.46875 0.921875 0 0.484375 0.578125 0.78125 0.53125 0.53125 0.71875 
0.46875 0.578125 0.734375 0.421875 0.53125 0.734375 0.53125 0.53125 0.25 
0.53125 0.53125 0 0.421875 0.53125 0.203125 0.421875 0.53125 0.03125 
0.46875 0.453125 0 0.546875 0 0.15625 0.703125 1.125 0.9375 
0.53125 1.20312 0.015625 0.234375 1.125 0.59375 0.640625 1.0625 0.765625 
0.640625 1.09375 0.765625 0.359375 1.14062 0.84375 0.328125 1.1875 0.828125 
0.453125 1.28125 0.5625 0.546875 1.25 0.546875 0.328125 1.03125 0.734375 
0.3125 1.07812 0.703125 0.3125 1.125 0.578125 0.296875 1.10938 0.5625 
0.59375 1.09375 0.578125 0.609375 1.10938 0.59375 0.5625 0.90625 0.234375 
0.578125 0.90625 0.234375 0.5 1.20312 0.578125 0.484375 1.23438 0.5625 
0.453125 1.15625 0.546875 0.4375 1.15625 0.5625 0.46875 1.15625 0.78125 
0.484375 0.90625 0.203125 
METADATA
INFORMATION 2
NAME L2_NORM_RANGE LOCATION vtkDataArray
DATA 2 0.568759 1.62447 
NAME L2_NORM_FINITE_RANGE LOCATION vtkDataArray
DATA 2 0.568759 1.62447 

CELLS 57 171
2 0 1 
2 2 3 
2 2 4 
2 5 6 
2 0 7 
2 8 9 
2 10 11 
2 12 13 
2 14 15 
2 16 17 
2 18 19 
2 20 21 
2 22 23 
2 16 24 
2 25 26 
2 27 28 
2 29 30 
2 31 32 
2 33 34 
2 35 36 
2 37 36 
2 38 39 
2 40 41 
2 42 43 
2 44 45 
2 46 47 
2 48 49 
2 50 51 
2 52 53 
2 54 55 
2 56 2 
2 5 0 
2 57 16 
2 36 39 
2 56 5 
2 39 41 
2 8 56 
2 41 47 
2 12 8 
2 47 45 
2 10 12 
2 45 49 
2 14 10 
2 49 34 
2 18 14 
2 34 43 
2 20 18 
2 43 51 
2 22 20 
2 51 53 
2 57 22 
2 53 31 
2 55 57 
2 31 29 
2 27 55 
2 29 25 
2 25 27 

CELL_TYPES 57
3
3
3
3
3
3
3
3
3
3
3
3
3
3
3
3
3
3
3
3
3
3
3
3
3
3
3
3
3
3
3
3
3
3
3
3
3
3
3
3
3
3
3
3
3
3
3
3
3
3
3
3
3
3
3
3
3

CELL_DATA 57
SCALARS SegmentationId int
LOOKUP_TABLE default
56 55 54 53 52 51 50 49 48 
47 46 45 44 43 42 41 40 39 
0 1 2 3 4 5 6 7 8 
9 10 11 37 38 31 13 36 14 
24 15 35 18 33 17 34 19 32 
12 30 16 29 20 28 21 22 25 
23 27 26 
METADATA
INFORMATION 0

FIELD FieldData 4
upNodeId 1 57 int
0 2 4 5 7 8 10 12 14 
16 18 20 22 24 25 27 29 31 
34 36 36 39 41 43 45 47 49 
51 53 55 3 1 17 39 6 41 
56 47 9 45 13 49 11 34 15 
43 19 51 21 53 23 32 57 30 
55 26 28 
METADATA
INFORMATION 0

downNodeId 1 57 int
1 3 3 6 1 9 11 13 15 
17 19 21 23 17 26 28 30 32 
33 35 37 38 40 42 44 46 48 
50 52 54 56 6 57 36 56 39 
9 41 13 47 11 45 15 49 19 
34 21 43 23 51 57 53 55 32 
28 30 26 
METADATA
INFORMATION 0

RegionSize 1 57 int
134 20 4 17 3 26 30 8 4 
114 11 9 5 10 467 558 66 75 
6621 13156 12144 6 12 39 7 1 8 
3 2 5 42 9 87 46409 8 6540 
102 8617 100 76886 82 127888 80 33547 944 
135090 261 11726 251 30581 932 321 748 24 
9364 4 22 
METADATA
INFORMATION 0

RegionSpan 1 57 double
0.11048543453 0.10126157105 0.022097086534 0.056336738169 0.027063293383 0.068107798696 0.046875 0.046875 0.034938562661 
0.15780475736 0.051822263747 0.046875 0.022097086534 0.034938562661 0.091108620167 0.066291257739 0.25 0.171875 
0.48563343287 0.94100904465 0.65457373857 0.03125 0.058463398367 0.10004881769 0.058463398367 0.027063293383 0.027063293383 
0.015625 0.038273278624 0.022097086534 0.049410589039 0.038273278624 0.17258375883 0.76578444242 0.098821178079 0.33219206333 
0.17258375883 0.27863365412 0.10126157105 0.14490029216 0.25769409537 0.3179217279 0.29398262501 1.194163084 0.29064181447 
1.3096135855 0.069877125323 0.46561452746 0.56811434031 0.47341430187 0.19764235616 0.79211199284 0.44028133154 0.11899645627 
0.60394215584 0.53537005186 0.049410589039 
METADATA
INFORMATION 0

POINT_DATA 58
FIELD FieldData 2
Scalar 1 58 float
0.58078 0.663475 0.607532 0.661042 0.643133 0.579462 0.623429 0.617226 0.56144 
0.602226 0.539836 0.589831 0.548919 0.583534 0.533835 0.560434 0.421174 0.524653 
0.465065 0.504751 0.449203 0.47696 0.4362 0.465225 0.459748 0.189533 0.272418 
0.189802 0.272281 0.189493 0.232354 0.189192 0.23199 0 0.0499098 0.000596541 
0.023317 0.000706702 0.00438586 0.031186 0.00937909 0.032366 0.0101471 0.0576736 0.0110138 
0.0427428 0.0119979 0.0338533 0.0173618 0.0494132 0.0242193 0.0640658 0.162503 0.18625 
0.334481 0.376468 0.577979 0.398127 
METADATA
INFORMATION 0

ttkMaskScalarField 1 58 char
0 0 0 0 0 0 0 0 0 
0 0 0 0 0 0 0 0 0 
0 0 0 0 0 0 0 0 0 
0 0 0 0 0 0 0 0 0 
0 0 0 0 0 0 0 0 0 
0 0 0 0 0 0 0 0 0 
0 0 0 0 
METADATA
INFORMATION 0

