# vtk DataFile Version 4.2
vtk output
ASCII
DATASET UNSTRUCTURED_GRID
POINTS 48 float
0.46875 1.0625 0.78125 0.46875 1.14062 0.8125 0.46875 1.0625 0.765625 
0.453125 1.04688 0.75 0.453125 1.07812 0.71875 0.484375 1.07812 0.640625 
0.484375 1.07812 0.671875 0.46875 1.04688 0.5625 0.484375 0.953125 0.0625 
0.46875 1 0 0.484375 0.96875 0.546875 0.484375 0.921875 0.546875 
0.46875 0.875 0.5625 0.46875 0.84375 0.59375 0.484375 0.921875 0.078125 
0.484375 0.921875 0.40625 0.484375 0.90625 0.390625 0.46875 0.921875 0.109375 
0.46875 0.890625 0.109375 0.46875 0.578125 0.703125 0.421875 0.53125 0.71875 
0.484375 0.578125 0.75 0.53125 0.53125 0.75 0.421875 0.53125 0.21875 
0.421875 0.53125 0 0.53125 0.53125 0.296875 0.53125 0.53125 0 
0.46875 0.453125 0 0.296875 0.078125 0.296875 0.265625 1.04688 0.578125 
0.421875 1.14062 0.9375 0.6875 1.04688 0.90625 0.609375 0.984375 0.765625 
0.625 1.01562 0.828125 0.59375 1.10938 0.625 0.609375 1.07812 0.625 
0.359375 1.04688 0.625 0.359375 1 0.671875 0.40625 0.84375 0.234375 
0.390625 0.859375 0.25 0.359375 1.07812 0.5625 0.34375 1.07812 0.578125 
0.546875 0.84375 0.25 0.5625 0.859375 0.203125 0.578125 1.01562 0.59375 
0.609375 1.03125 0.578125 0.5 1.0625 0.6875 0.484375 0.84375 0.234375 

METADATA
INFORMATION 2
NAME L2_NORM_RANGE LOCATION vtkDataArray
DATA 2 0.427052 1.54593 
NAME L2_NORM_FINITE_RANGE LOCATION vtkDataArray
DATA 2 0.427052 1.54593 

CELLS 47 141
2 0 1 
2 0 2 
2 3 4 
2 5 6 
2 5 7 
2 8 9 
2 10 11 
2 12 13 
2 8 14 
2 15 16 
2 17 18 
2 19 20 
2 21 22 
2 23 24 
2 25 26 
2 27 28 
2 29 30 
2 31 30 
2 32 33 
2 34 35 
2 36 37 
2 38 39 
2 40 41 
2 42 43 
2 44 45 
2 3 0 
2 46 5 
2 17 8 
2 30 37 
2 46 3 
2 47 17 
2 37 35 
2 10 46 
2 35 33 
2 12 10 
2 33 41 
2 15 12 
2 41 28 
2 47 15 
2 28 45 
2 19 47 
2 45 39 
2 21 19 
2 39 43 
2 25 21 
2 43 23 
2 23 25 

CELL_TYPES 47
3
3
3
3
3
3
3
3
3
3
3
3
3
3
3
3
3
3
3
3
3
3
3
3
3
3
3
3
3
3
3
3
3
3
3
3
3
3
3
3
3
3
3
3
3
3
3

CELL_DATA 47
SCALARS SegmentationId int
LOOKUP_TABLE default
46 45 44 43 42 41 40 39 38 
37 36 35 34 33 32 0 1 2 
3 4 5 6 7 8 9 31 29 
28 11 30 24 14 20 13 27 12 
26 16 25 10 19 18 23 15 22 
17 21 
METADATA
INFORMATION 0

FIELD FieldData 4
upNodeId 1 47 int
0 2 3 5 7 8 10 12 14 
15 17 19 21 23 25 28 30 30 
33 35 37 39 41 43 45 1 6 
9 37 4 18 35 46 33 11 41 
13 28 16 45 47 39 20 43 22 
24 26 
METADATA
INFORMATION 0

downNodeId 1 47 int
1 1 4 6 6 9 11 13 9 
16 18 20 22 24 26 27 29 31 
32 34 36 38 40 42 44 4 46 
18 30 46 47 37 11 35 13 33 
16 41 47 28 20 45 22 39 26 
43 24 
METADATA
INFORMATION 0

RegionSize 1 47 int
39 12 21 27 36 28 4 7 5 
3 5 559 458 95 75 6589 28819 31340 
19 3 7 11 2 7 8 8 6 
24 6338 133 92 17439 761 30665 167 66730 
279 131330 1028 158232 7863 2346 70 9631 34 
22639 246 
METADATA
INFORMATION 0

RegionSpan 1 47 double
0.084143199027 0.015625 0.044194173068 0.03125 0.08558165282 0.079672180116 0.046875 0.044194173068 0.034938562661 
0.022097086534 0.03125 0.068107798696 0.066291257739 0.21875 0.296875 0.50823301077 0.40293115377 0.28341183066 
0.071602746844 0.034938562661 0.066291257739 0.027063293383 0.022097086534 0.051822263747 0.038273278624 0.038273278624 0.051822263747 
0.058463398367 0.30698254704 0.079672180116 0.14823175967 0.26608416438 0.16973094642 0.21309658885 0.09631896764 0.3814548552 
0.1638763845 1.0398552418 0.18879759312 1.0417317152 0.53900587559 0.43018436432 0.049410589039 0.17815241218 0.45794847608 
0.35733115673 0.13441133499 
METADATA
INFORMATION 0

POINT_DATA 48
FIELD FieldData 2
Scalar 1 48 float
0.584696 0.656312 0.620282 0.578768 0.609028 0.548828 0.599986 0.58563 0.459354 
0.523398 0.471264 0.496645 0.459689 0.48734 0.48575 0.442303 0.467539 0.433662 
0.461649 0.190312 0.273183 0.1892 0.273172 0.185329 0.234036 0.18872 0.233447 
0 0.0499023 0.000997117 0.0323983 0.00101194 0.00275725 0.0406076 0.00751664 0.0363086 
0.0112462 0.033461 0.0216425 0.06039 0.0231207 0.0461775 0.0300597 0.0687941 0.0316341 
0.0591779 0.545586 0.389505 
METADATA
INFORMATION 0

ttkMaskScalarField 1 48 char
0 0 0 0 0 0 0 0 0 
0 0 0 0 0 0 0 0 0 
0 0 0 0 0 0 0 0 0 
0 0 0 0 0 0 0 0 0 
0 0 0 0 0 0 0 0 0 
0 0 0 
METADATA
INFORMATION 0

