# vtk DataFile Version 4.2
vtk output
ASCII
DATASET UNSTRUCTURED_GRID
POINTS 62 float
0.46875 1.20312 0.78125 0.46875 1.20312 0.796875 0.46875 1.32812 0.734375 
0.46875 1.28125 0.6875 0.46875 1.21875 0.765625 0.5 1.15625 0.90625 
0.46875 1.10938 0.953125 0.5 1.15625 0.5625 0.515625 1.17188 0.5625 
0.484375 1.125 0.578125 0.515625 1.1875 0.875 0.46875 1 0.875 
0.46875 0.96875 0.890625 0.46875 0.96875 0.09375 0.484375 1.04688 0.015625 
0.46875 0.859375 0.578125 0.484375 0.921875 0.5625 0.46875 1.0625 0.46875 
0.453125 1.03125 0.4375 0.484375 0.96875 0.640625 0.484375 0.921875 0.625 
0.484375 0.84375 0.609375 0.484375 0.875 0.59375 0.484375 0.96875 0.09375 
0.484375 0.890625 0.984375 0.484375 0.953125 0.984375 0.484375 0.921875 0.34375 
0.46875 0.921875 0.328125 0.5 0.953125 0.015625 0.484375 0.84375 0 
0.53125 0.53125 0.3125 0.53125 0.53125 0.734375 0.46875 0.578125 0.703125 
0.421875 0.53125 0.71875 0.53125 0.53125 0.015625 0.421875 0.53125 0.21875 
0.421875 0.53125 0 0.46875 0.453125 0 0.296875 0.0625 0.296875 
0.296875 0.921875 0.234375 0.484375 1.23438 0.5 0.703125 1.125 0.578125 
0.625 1.07812 0.71875 0.65625 1.125 0.84375 0.40625 0.953125 0.96875 
0.359375 0.953125 0.96875 0.359375 1.1875 0.890625 0.359375 1.17188 0.875 
0.59375 1.15625 0.890625 0.609375 1.17188 0.875 0.40625 1.26562 0.5625 
0.390625 1.26562 0.5625 0.5625 0.90625 0.234375 0.578125 0.90625 0.234375 
0.390625 0.90625 0.25 0.375 0.90625 0.1875 0.421875 1.1875 0.859375 
0.40625 1.17188 0.859375 0.453125 1.15625 0.609375 0.484375 1.1875 0.859375 
0.484375 0.90625 0.265625 0.484375 0.578125 0.71875 
METADATA
INFORMATION 2
NAME L2_NORM_RANGE LOCATION vtkDataArray
DATA 2 0.424471 1.58838 
NAME L2_NORM_FINITE_RANGE LOCATION vtkDataArray
DATA 2 0.424471 1.58838 

CELLS 61 183
2 0 1 
2 2 3 
2 0 4 
2 5 6 
2 7 8 
2 7 9 
2 5 10 
2 11 12 
2 13 14 
2 15 16 
2 17 18 
2 19 20 
2 21 22 
2 13 23 
2 24 25 
2 26 27 
2 28 29 
2 30 31 
2 32 33 
2 30 34 
2 35 36 
2 37 38 
2 39 40 
2 41 40 
2 42 43 
2 44 45 
2 46 47 
2 48 49 
2 50 51 
2 52 53 
2 54 55 
2 56 57 
2 2 0 
2 58 7 
2 59 5 
2 60 13 
2 61 30 
2 40 43 
2 59 2 
2 43 47 
2 11 59 
2 47 45 
2 19 11 
2 45 49 
2 58 19 
2 49 38 
2 17 58 
2 38 51 
2 21 17 
2 51 53 
2 15 21 
2 53 55 
2 24 15 
2 55 35 
2 26 24 
2 35 61 
2 60 26 
2 61 32 
2 28 60 
2 32 57 
2 57 28 

CELL_TYPES 61
3
3
3
3
3
3
3
3
3
3
3
3
3
3
3
3
3
3
3
3
3
3
3
3
3
3
3
3
3
3
3
3
3
3
3
3
3
3
3
3
3
3
3
3
3
3
3
3
3
3
3
3
3
3
3
3
3
3
3
3
3

CELL_DATA 61
SCALARS SegmentationId int
LOOKUP_TABLE default
60 59 58 57 56 55 54 53 52 
51 50 49 48 47 46 45 44 43 
42 41 40 0 1 2 3 4 5 
6 7 8 9 10 39 36 37 34 
27 12 38 13 25 15 35 14 31 
16 24 11 32 17 30 18 33 19 
29 21 28 26 22 23 20 
METADATA
INFORMATION 0

FIELD FieldData 4
upNodeId 1 61 int
0 2 4 5 7 9 10 11 13 
15 17 19 21 23 24 26 28 30 
32 34 35 38 40 40 43 45 47 
49 51 53 55 57 1 8 6 14 
31 43 3 47 59 45 12 49 20 
38 58 51 18 53 22 55 16 36 
25 61 27 33 60 57 29 
METADATA
INFORMATION 0

downNodeId 1 61 int
1 3 1 6 8 8 6 12 14 
16 18 20 22 14 25 27 29 31 
33 31 36 37 39 41 42 44 46 
48 50 52 54 56 3 58 59 60 
61 40 59 43 12 47 20 45 58 
49 18 38 22 51 16 53 25 55 
27 36 60 61 29 33 57 
METADATA
INFORMATION 0

RegionSize 1 61 int
18 60 23 26 2 8 23 3 81 
15 15 7 4 10 11 9 18 447 
578 70 96 6547 33126 36191 37 22 2 
3 1 7 14 3 8 59 9 80 
35 13757 585 10830 23 26430 254 29467 54 
175571 74 91752 203 63714 93 466 955 21138 
100 288 360 109 141 2260 7934 
METADATA
INFORMATION 0

RegionSpan 1 61 double
0.015625 0.066291257739 0.022097086534 0.0732877478 0.022097086534 0.038273278624 0.046875 0.034938562661 0.11158481985 
0.066291257739 0.046875 0.049410589039 0.034938562661 0.015625 0.0625 0.022097086534 0.11158481985 0.421875 
0.068107798696 0.296875 0.21875 0.51986891031 0.45096468925 0.25674495101 0.1371088177 0.046875 0.022097086534 
0.027063293383 0.015625 0.015625 0.064423523843 0.022097086534 0.13350005448 0.066291257739 0.058463398367 0.18355219066 
0.41162312031 0.3995847404 0.18879759312 0.30217310786 0.18879759312 0.23799291253 0.23696485162 0.34516751766 0.19263793528 
1.2894175053 0.16973094642 1.2356599569 0.26052081585 0.521510005 0.038273278624 0.20846350491 0.40774962306 0.37920814753 
0.64138674736 0.50606673956 0.079672180116 0.022097086534 0.25483605266 0.61713802814 0.87667250633 
METADATA
INFORMATION 0

POINT_DATA 62
FIELD FieldData 2
Scalar 1 62 float
0.618633 0.667218 0.613724 0.662032 0.650751 0.52278 0.584925 0.53472 0.566964 
0.565013 0.564245 0.514404 0.535925 0.435654 0.529913 0.464888 0.522938 0.484734 
0.521635 0.493403 0.515723 0.472453 0.49801 0.461449 0.41873 0.447178 0.414679 
0.438992 0.397558 0.427015 0.189954 0.271691 0.188413 0.271604 0.236185 0.18435 
0.234092 0 0.0499045 0.00119697 0.030669 0.00137508 0.00624402 0.0331077 0.0121936 
0.0386729 0.0123365 0.0349003 0.016199 0.04152 0.0235726 0.0513388 0.0421272 0.0740444 
0.0438002 0.0748906 0.201728 0.228436 0.490309 0.516355 0.401619 0.187217 
METADATA
INFORMATION 0

ttkMaskScalarField 1 62 char
0 0 0 0 0 0 0 0 0 
0 0 0 0 0 0 0 0 0 
0 0 0 0 0 0 0 0 0 
0 0 0 0 0 0 0 0 0 
0 0 0 0 0 0 0 0 0 
0 0 0 0 0 0 0 0 0 
0 0 0 0 0 0 0 0 
METADATA
INFORMATION 0

