# vtk DataFile Version 4.2
vtk output
ASCII
DATASET UNSTRUCTURED_GRID
POINTS 40 float
0.484375 1.0625 0.734375 0.484375 1.09375 0.71875 0.453125 1.09375 0.828125 
0.46875 1.0625 0.90625 0.5 1.10938 0.796875 0.46875 1.125 0.625 
0.46875 1.09375 0.65625 0.46875 1.0625 0.609375 0.46875 0.84375 0.21875 
0.484375 0.96875 0.015625 0.46875 0.578125 0.734375 0.421875 0.53125 0.734375 
0.53125 0.53125 0.21875 0.53125 0.53125 0.71875 0.421875 0.53125 0.28125 
0.421875 0.53125 0 0.359375 1.09375 0.703125 0.34375 1.10938 0.703125 
0.53125 0.53125 0 0.46875 0.453125 0 0.234375 0.09375 0.15625 
0.265625 1.04688 0.90625 0.359375 1.07812 0.609375 0.703125 1.03125 0.625 
0.640625 1.04688 0.8125 0.375 1.0625 0.90625 0.359375 1.07812 0.9375 
0.359375 1.09375 0.59375 0.609375 1.07812 0.828125 0.546875 0.84375 0.234375 
0.5625 0.84375 0.25 0.359375 1.01562 0.5625 0.34375 1.03125 0.53125 
0.40625 1.14062 0.5625 0.390625 1.14062 0.5625 0.40625 0.84375 0.25 
0.390625 0.859375 0.28125 0.453125 0.984375 0.6875 0.484375 0.578125 0.75 
0.484375 1.20312 0.1875 
METADATA
INFORMATION 2
NAME L2_NORM_RANGE LOCATION vtkDataArray
DATA 2 0.296875 1.48979 
NAME L2_NORM_FINITE_RANGE LOCATION vtkDataArray
DATA 2 0.296875 1.48979 

CELLS 39 117
2 0 1 
2 2 3 
2 0 4 
2 5 6 
2 5 7 
2 8 9 
2 10 11 
2 12 13 
2 14 15 
2 16 17 
2 12 18 
2 19 20 
2 21 22 
2 23 24 
2 25 26 
2 27 22 
2 28 24 
2 29 30 
2 31 32 
2 33 34 
2 35 36 
2 2 0 
2 37 5 
2 38 12 
2 22 39 
2 24 39 
2 37 2 
2 39 26 
2 8 37 
2 26 20 
2 16 8 
2 20 32 
2 10 16 
2 32 34 
2 38 10 
2 34 30 
2 14 38 
2 30 36 
2 36 14 

CELL_TYPES 39
3
3
3
3
3
3
3
3
3
3
3
3
3
3
3
3
3
3
3
3
3
3
3
3
3
3
3
3
3
3
3
3
3
3
3
3
3
3
3

CELL_DATA 39
SCALARS SegmentationId int
LOOKUP_TABLE default
38 37 36 35 34 33 32 31 30 
29 28 0 1 2 3 4 5 6 
7 8 9 27 25 22 11 12 26 
18 20 13 24 10 21 15 23 16 
19 14 17 
METADATA
INFORMATION 0

FIELD FieldData 4
upNodeId 1 39 int
0 2 4 5 7 8 10 12 14 
16 18 20 22 24 26 22 24 30 
32 34 36 1 6 13 39 39 3 
26 37 20 9 32 17 34 11 30 
38 36 15 
METADATA
INFORMATION 0

downNodeId 1 39 int
1 3 1 6 6 9 11 13 15 
17 13 19 21 23 25 27 28 29 
31 33 35 3 37 38 22 24 37 
39 9 26 17 20 11 32 38 34 
15 30 36 
METADATA
INFORMATION 0

RegionSize 1 39 int
17 71 33 25 21 186 545 459 96 
6 61 6455 27238 43303 5 1 13 12 
10 3 13 99 64 26 37257 27448 98 
74439 2078 101534 7002 81337 785 48396 123 29444 
116 16838 18591 
METADATA
INFORMATION 0

RegionSpan 1 39 double
0.034938562661 0.08558165282 0.079672180116 0.044194173068 0.064423523843 0.2390165329 0.066291257739 0.5 0.28125 
0.022097086534 0.21875 0.45661371946 0.31289038062 0.19825902581 0.038273278624 0.022097086534 0.046875 0.022097086534 
0.038273278624 0.015625 0.038273278624 0.10364452749 0.15467961133 0.53537005186 0.45741504431 0.66291260719 0.17815241218 
0.77055174112 0.48963874578 1.2629214525 0.5559514761 1.015625 0.52802330256 0.12303137034 0.022097086534 0.46403881907 
0.47521582246 0.17539018393 0.3296097219 
METADATA
INFORMATION 0

POINT_DATA 40
FIELD FieldData 2
Scalar 1 40 float
0.58155 0.640721 0.546454 0.620858 0.618701 0.552892 0.603459 0.599359 0.389854 
0.528675 0.190536 0.272668 0.190294 0.272548 0.186962 0.240108 0.207291 0.235418 
0.233504 0 0.0499014 0.000793316 0.0319399 0.00122032 0.03608 0.00719828 0.0479085 
0.00947143 0.0138759 0.0181419 0.0589379 0.023102 0.0505228 0.026986 0.0525106 0.0336073 
0.0756198 0.525009 0.188462 0.0425822 
METADATA
INFORMATION 0

ttkMaskScalarField 1 40 char
0 0 0 0 0 0 0 0 0 
0 0 0 0 0 0 0 0 0 
0 0 0 0 0 0 0 0 0 
0 0 0 0 0 0 0 0 0 
0 0 0 0 
METADATA
INFORMATION 0

