# vtk DataFile Version 4.2
vtk output
ASCII
DATASET UNSTRUCTURED_GRID
POINTS 59 float
0.46875 1.15625 0.6875 0.46875 1.14062 0.640625 0.46875 1.10938 0.703125 
0.453125 1.14062 0.84375 0.484375 1.15625 0.796875 0.484375 1.09375 0.890625 
0.484375 1.09375 0.578125 0.484375 1.09375 0.5625 0.484375 1.04688 0.5 
0.46875 1.03125 0.484375 0.46875 1.29688 0.734375 0.46875 1.32812 0.71875 
0.46875 0.890625 0.265625 0.484375 1.03125 0 0.484375 0.921875 0.90625 
0.484375 0.90625 0.921875 0.484375 0.921875 0.9375 0.46875 0.921875 0.96875 
0.46875 0.890625 0.015625 0.484375 0.828125 0.015625 0.484375 0.578125 0.71875 
0.53125 0.53125 0.75 0.46875 0.578125 0.734375 0.421875 0.53125 0.75 
0.421875 0.53125 0.265625 0.421875 0.53125 0 0.53125 0.53125 0.265625 
0.53125 0.53125 0 0.46875 0.453125 0 0.234375 0.015625 0.328125 
0.234375 1.0625 0.765625 0.296875 1.04688 0.75 0.6875 1.09375 0.5625 
0.65625 1.07812 0.703125 0.640625 1.07812 0.703125 0.40625 1.20312 0.5625 
0.390625 1.1875 0.546875 0.3125 1.0625 0.71875 0.578125 1.09375 0.578125 
0.578125 1.10938 0.53125 0.640625 1.0625 0.78125 0.65625 1.04688 0.734375 
0.5625 1.125 0.53125 0.609375 1.09375 0.890625 0.625 1.09375 0.90625 
0.59375 1.15625 0.59375 0.609375 1.14062 0.59375 0.40625 0.875 0.234375 
0.375 0.875 0.234375 0.609375 1.14062 0.84375 0.625 1.125 0.84375 
0.34375 0.984375 0.765625 0.328125 1.03125 0.796875 0.546875 1.14062 0.515625 
0.546875 1.14062 0.5 0.578125 1.14062 0.953125 0.578125 1.125 0.953125 
0.515625 1.10938 0.75 0.421875 1.15625 0.5 
METADATA
INFORMATION 2
NAME L2_NORM_RANGE LOCATION vtkDataArray
DATA 2 0.403537 1.5949 
NAME L2_NORM_FINITE_RANGE LOCATION vtkDataArray
DATA 2 0.403537 1.5949 

CELLS 58 174
2 0 1 
2 0 2 
2 3 4 
2 3 5 
2 6 7 
2 8 9 
2 10 11 
2 12 13 
2 14 15 
2 16 17 
2 18 19 
2 20 21 
2 22 23 
2 24 25 
2 26 27 
2 28 29 
2 30 31 
2 32 33 
2 34 33 
2 35 36 
2 37 31 
2 38 39 
2 40 41 
2 42 39 
2 43 44 
2 45 46 
2 47 48 
2 49 50 
2 51 52 
2 53 54 
2 55 56 
2 6 0 
2 57 3 
2 33 41 
2 31 36 
2 57 6 
2 41 58 
2 36 58 
2 8 57 
2 58 46 
2 10 8 
2 46 44 
2 14 10 
2 44 50 
2 16 14 
2 50 39 
2 12 16 
2 39 52 
2 18 12 
2 52 29 
2 20 18 
2 29 54 
2 22 20 
2 54 56 
2 26 22 
2 56 48 
2 24 26 
2 48 24 

CELL_TYPES 58
3
3
3
3
3
3
3
3
3
3
3
3
3
3
3
3
3
3
3
3
3
3
3
3
3
3
3
3
3
3
3
3
3
3
3
3
3
3
3
3
3
3
3
3
3
3
3
3
3
3
3
3
3
3
3
3
3
3

CELL_DATA 58
SCALARS SegmentationId int
LOOKUP_TABLE default
57 56 55 54 53 52 51 50 49 
48 47 46 45 44 43 0 1 2 
3 4 5 6 7 8 9 10 11 
12 13 14 15 42 41 18 17 40 
21 19 30 29 39 23 38 22 36 
25 35 20 37 26 34 16 33 27 
32 28 31 24 
METADATA
INFORMATION 0

FIELD FieldData 4
upNodeId 1 58 int
0 2 3 5 6 8 10 12 14 
16 18 20 22 24 26 29 31 33 
33 36 31 39 41 39 44 46 48 
50 52 54 56 1 4 41 36 7 
58 58 57 46 9 44 11 50 15 
39 17 52 13 29 19 54 21 56 
23 48 27 25 
METADATA
INFORMATION 0

downNodeId 1 58 int
1 1 4 4 7 9 11 13 15 
17 19 21 23 25 27 28 30 32 
34 35 37 38 40 42 43 45 47 
49 51 53 55 7 57 33 31 57 
41 36 9 58 11 46 15 44 17 
50 13 39 19 52 21 29 23 54 
27 56 25 48 
METADATA
INFORMATION 0

RegionSize 1 58 int
28 27 77 50 8 10 7 154 11 
12 16 455 554 81 71 6664 30816 16568 
17 5 5 7 8 0 4 7 12 
15 6 0 0 71 3 41846 2994 80 
2952 22474 182 9271 12 16833 923 17228 424 
71387 788 40424 235 47172 8717 138339 16 3331 
25 12817 109 29881 
METADATA
INFORMATION 0

RegionSpan 1 58 double
0.049410589039 0.049410589039 0.058463398367 0.0732877478 0.015625 0.027063293383 0.034938562661 0.30095875263 0.022097086534 
0.034938562661 0.064423523843 0.0732877478 0.068107798696 0.265625 0.265625 0.59498226643 0.066291257739 0.14490029216 
0.015625 0.027063293383 0.038273278624 0.049410589039 0.051822263747 0.022097086534 0.022097086534 0.022097086534 0.03125 
0.022097086534 0.058463398367 0.015625 0.015625 0.12693810463 0.11692679673 0.044194173068 0.26424273849 0.17539018393 
0.34903606772 0.064423523843 0.25958198309 0.21021287143 0.3430390358 0.31638213992 0.41280764341 0.069877125323 0.03125 
0.31638213992 0.67278283834 0.373041749 0.25 1.1225016117 0.76960062981 1.1801788807 0.022097086534 0.45446997881 
0.47521582246 0.78763020039 0.109375 0.34833589196 
METADATA
INFORMATION 0

POINT_DATA 59
FIELD FieldData 2
Scalar 1 59 float
0.613386 0.659109 0.658068 0.558277 0.653859 0.625198 0.576695 0.610728 0.532729 
0.568963 0.53154 0.559369 0.399398 0.525509 0.462387 0.497432 0.436283 0.473778 
0.391325 0.420663 0.189959 0.272444 0.189723 0.272283 0.188351 0.234363 0.189439 
0.2332 0 0.0499073 0.000923206 0.0315376 0.0013523 0.0264404 0.00390516 0.00616187 
0.0326284 0.00768191 0.0108555 0.048227 0.0119054 0.0389619 0.0124547 0.0155505 0.0421059 
0.0167099 0.040631 0.0175493 0.0635302 0.0215339 0.0435204 0.0257697 0.0492768 0.031723 
0.0559338 0.0338493 0.0569789 0.55718 0.039695 
METADATA
INFORMATION 0

ttkMaskScalarField 1 59 char
0 0 0 0 0 0 0 0 0 
0 0 0 0 0 0 0 0 0 
0 0 0 0 0 0 0 0 0 
0 0 0 0 0 0 0 0 0 
0 0 0 0 0 0 0 0 0 
0 0 0 0 0 0 0 0 0 
0 0 0 0 0 
METADATA
INFORMATION 0

