# vtk DataFile Version 4.2
vtk output
ASCII
DATASET UNSTRUCTURED_GRID
POINTS 68 float
0.46875 1.0625 0.78125 0.46875 1.26562 0.8125 0.484375 1.23438 0.71875 
0.5 1.23438 0.6875 0.5 1.23438 0.65625 0.46875 1.125 0.546875 
0.46875 1 0.796875 0.484375 1.03125 0.703125 0.46875 1.03125 0.71875 
0.46875 1.23438 0.890625 0.46875 1.25 0.890625 0.46875 1.0625 0.90625 
0.46875 1.07812 0.90625 0.46875 1.01562 0.046875 0.453125 1.04688 0.015625 
0.484375 1.04688 0.90625 0.5 1.15625 0.90625 0.53125 1.21875 0.90625 
0.46875 1.0625 0.65625 0.453125 1 0.625 0.484375 1 0.515625 
0.484375 0.96875 0.53125 0.46875 0.9375 0.5625 0.46875 0.9375 0.59375 
0.46875 0.875 0.90625 0.484375 0.90625 0.921875 0.484375 1.0625 0.984375 
0.46875 1.0625 0.984375 0.484375 1.01562 0.4375 0.46875 1 0.421875 
0.484375 0.96875 0.078125 0.46875 0.96875 0.40625 0.484375 0.96875 0.390625 
0.46875 0.890625 0.953125 0.46875 0.859375 0.96875 0.453125 0.9375 0.015625 
0.46875 0.921875 0.015625 0.46875 0.890625 0.015625 0.484375 0.84375 0.015625 
0.484375 0.578125 0.75 0.53125 0.53125 0.75 0.46875 0.578125 0.703125 
0.421875 0.53125 0.71875 0.421875 0.53125 0.21875 0.421875 0.53125 0 
0.53125 0.53125 0.296875 0.53125 0.53125 0 0.46875 0.453125 0 
0.140625 0.0625 0.484375 0.703125 1.125 0.90625 0.34375 1.14062 0.578125 
0.484375 1.28125 0.546875 0.5625 1.26562 0.546875 0.625 1.0625 0.765625 
0.625 1.07812 0.734375 0.359375 1.14062 0.609375 0.390625 1.23438 0.90625 
0.375 1.23438 0.890625 0.59375 1.10938 0.546875 0.609375 1.125 0.546875 
0.40625 1.25 0.921875 0.4375 1.25 0.9375 0.390625 0.90625 0.25 
0.375 0.90625 0.25 0.5 1.20312 0.59375 0.515625 1.20312 0.59375 
0.5 1.21875 0.90625 0.484375 0.921875 0.21875 
METADATA
INFORMATION 2
NAME L2_NORM_RANGE LOCATION vtkDataArray
DATA 2 0.508233 1.62259 
NAME L2_NORM_FINITE_RANGE LOCATION vtkDataArray
DATA 2 0.508233 1.62259 

CELLS 67 201
2 0 1 
2 2 3 
2 4 5 
2 0 6 
2 7 8 
2 9 10 
2 11 12 
2 13 14 
2 11 15 
2 16 17 
2 18 19 
2 20 21 
2 22 23 
2 24 25 
2 26 27 
2 28 29 
2 13 30 
2 31 32 
2 33 34 
2 35 36 
2 37 38 
2 39 40 
2 41 42 
2 43 44 
2 45 46 
2 47 48 
2 49 50 
2 51 52 
2 53 54 
2 55 50 
2 56 57 
2 58 59 
2 60 61 
2 62 63 
2 64 65 
2 2 0 
2 16 11 
2 35 13 
2 50 52 
2 4 2 
2 66 16 
2 67 35 
2 52 54 
2 7 4 
2 54 59 
2 9 7 
2 59 48 
2 66 9 
2 48 57 
2 18 66 
2 57 61 
2 20 18 
2 61 63 
2 22 20 
2 63 43 
2 26 22 
2 43 45 
2 28 26 
2 45 39 
2 24 28 
2 39 41 
2 31 24 
2 41 65 
2 33 31 
2 65 37 
2 67 33 
2 37 67 

CELL_TYPES 67
3
3
3
3
3
3
3
3
3
3
3
3
3
3
3
3
3
3
3
3
3
3
3
3
3
3
3
3
3
3
3
3
3
3
3
3
3
3
3
3
3
3
3
3
3
3
3
3
3
3
3
3
3
3
3
3
3
3
3
3
3
3
3
3
3
3
3

CELL_DATA 67
SCALARS SegmentationId int
LOOKUP_TABLE default
66 65 64 63 62 61 60 59 58 
57 56 55 54 53 52 51 50 49 
48 47 46 45 44 43 42 0 1 
2 3 4 5 6 7 8 9 41 
36 35 11 40 34 25 12 39 13 
38 15 37 10 21 14 33 16 32 
17 31 22 29 24 28 23 30 20 
27 18 26 19 
METADATA
INFORMATION 0

FIELD FieldData 4
upNodeId 1 67 int
0 2 4 6 7 9 11 13 15 
16 18 20 22 24 26 28 30 31 
33 35 37 39 41 43 45 48 50 
52 54 50 57 59 61 63 65 1 
12 14 52 3 17 36 54 5 59 
8 48 10 57 66 61 19 63 21 
44 23 46 27 40 29 42 25 65 
32 38 34 67 
METADATA
INFORMATION 0

downNodeId 1 67 int
1 3 5 1 8 10 12 14 12 
17 19 21 23 25 27 29 14 32 
34 36 38 40 42 44 46 47 49 
51 53 55 56 58 60 62 64 3 
17 36 50 5 66 67 52 8 54 
10 59 66 48 19 57 21 61 23 
63 27 44 29 46 25 40 32 42 
34 65 67 38 
METADATA
INFORMATION 0

RegionSize 1 67 int
144 36 61 5 11 0 7 49 2 
10 14 10 7 10 5 11 18 1 
9 5 11 446 550 95 74 7023 117550 
13 13 5 2 4 1 8 0 54 
15 75 48276 65 9 12 31376 149 62072 
91 66115 194 115465 92 2111 290 31620 52 
27387 64 447 165 103 134 3 108 256 
568 9842 627 173 
METADATA
INFORMATION 0

RegionSpan 1 67 double
0.20551478863 0.034938562661 0.15780475736 0.064423523843 0.022097086534 0.015625 0.015625 0.046875 0.022097086534 
0.069877125323 0.071602746844 0.034938562661 0.03125 0.038273278624 0.015625 0.027063293383 0.058463398367 0.022097086534 
0.034938562661 0.022097086534 0.049410589039 0.066291257739 0.068107798696 0.21875 0.296875 0.70347213745 0.48688864708 
0.079672180116 0.034938562661 0.034938562661 0.022097086534 0.022097086534 0.034938562661 0.015625 0.015625 0.18355219066 
0.098821178079 0.08558165282 0.25387620926 0.064423523843 0.0625 0.20610789955 0.27243119478 0.20904825628 0.19390115142 
0.27687570453 1.162987113 0.038273278624 1.2622447014 0.29646351933 0.079672180116 0.15467961133 0.77118515968 0.079672180116 
0.37920814753 0.44028133154 0.13441133499 0.54888027906 0.45794847608 0.48963874578 0.049410589039 0.50871312618 0.6362273097 
0.55242717266 0.65884900093 0.73520565033 0.20610789955 
METADATA
INFORMATION 0

POINT_DATA 68
FIELD FieldData 2
Scalar 1 68 float
0.578703 0.672239 0.561719 0.620497 0.552526 0.609597 0.600683 0.533926 0.578716 
0.524027 0.56197 0.523477 0.553686 0.446926 0.551581 0.55129 0.510851 0.54576 
0.499076 0.53933 0.479517 0.525365 0.477472 0.521213 0.458018 0.507651 0.473838 
0.505731 0.464572 0.498623 0.485991 0.452532 0.479426 0.425901 0.448008 0.406071 
0.429754 0.39704 0.425119 0.190629 0.27293 0.190696 0.272849 0.184668 0.233913 
0.189145 0.233663 0 0.0499104 0.000380061 0.0384194 0.00681726 0.0428754 0.00945365 
0.0453921 0.0141074 0.0184639 0.0532854 0.0194781 0.0486597 0.0312459 0.0536088 0.0334551 
0.0667275 0.16809 0.194554 0.505454 0.402313 
METADATA
INFORMATION 0

ttkMaskScalarField 1 68 char
0 0 0 0 0 0 0 0 0 
0 0 0 0 0 0 0 0 0 
0 0 0 0 0 0 0 0 0 
0 0 0 0 0 0 0 0 0 
0 0 0 0 0 0 0 0 0 
0 0 0 0 0 0 0 0 0 
0 0 0 0 0 0 0 0 0 
0 0 0 0 0 
METADATA
INFORMATION 0

