# vtk DataFile Version 4.2
vtk output
ASCII
DATASET UNSTRUCTURED_GRID
POINTS 94 float
0.46875 1.29688 0.796875 0.46875 1.42188 0.796875 0.453125 1.35938 0.71875 
0.46875 1.42188 0.6875 0.484375 1.32812 0.828125 0.46875 1.34375 0.75 
0.453125 1.23438 0.734375 0.484375 1.1875 0.859375 0.484375 1.14062 0.859375 
0.484375 1.35938 0.625 0.546875 1.3125 0.609375 0.484375 1.04688 0.84375 
0.484375 1 0.84375 0.5 1.03125 0.59375 0.484375 1.0625 0.5625 
0.515625 1.10938 0.5625 0.5 1.15625 0.5625 0.453125 1.0625 0.421875 
0.453125 1.10938 0.453125 0.46875 0.921875 0.640625 0.484375 0.953125 0.625 
0.484375 0.921875 0.90625 0.484375 0.96875 0.921875 0.46875 0.953125 0.890625 
0.484375 1.07812 0.0625 0.5 1.125 0.03125 0.484375 0.953125 0.59375 
0.46875 0.953125 0.578125 0.5 1.17188 0.921875 0.453125 1.20312 0.953125 
0.46875 1.03125 0.09375 0.484375 1.01562 0.109375 0.46875 1.04688 0.40625 
0.46875 1.0625 0.078125 0.5 1 0 0.484375 0.953125 0 
0.46875 1.04688 0.53125 0.46875 1.04688 0.515625 0.484375 1 0.140625 
0.46875 1 0.15625 0.5 1.03125 0 0.484375 1.03125 0.984375 
0.484375 1.0625 0.984375 0.515625 1.14062 0.40625 0.53125 1.14062 0.40625 
0.46875 0.578125 0.703125 0.421875 0.53125 0.71875 0.53125 0.53125 0.3125 
0.53125 0.53125 0.765625 0.53125 0.53125 0.015625 0.421875 0.53125 0.21875 
0.421875 0.53125 0 0.46875 0.453125 0 0.359375 0.03125 0.484375 
0.203125 1.23438 0.828125 0.65625 1.21875 0.8125 0.609375 1.15625 0.796875 
0.625 1.17188 0.671875 0.609375 1.21875 0.640625 0.34375 1.35938 0.5625 
0.328125 1.375 0.578125 0.5625 1.32812 0.9375 0.578125 1.32812 0.9375 
0.5625 1.42188 0.640625 0.625 1.375 0.6875 0.546875 1.04688 0.59375 
0.578125 1.03125 0.578125 0.375 1.35938 0.53125 0.359375 1.35938 0.53125 
0.546875 1.10938 0.46875 0.578125 1.07812 0.5 0.578125 0.96875 0.234375 
0.59375 0.96875 0.234375 0.546875 1.17188 0.921875 0.5625 1.14062 0.921875 
0.390625 0.96875 0.265625 0.359375 0.96875 0.265625 0.53125 1.07812 0.4375 
0.53125 1.07812 0.453125 0.421875 1.1875 0.546875 0.390625 1.1875 0.609375 
0.390625 1.26562 0.734375 0.390625 1.21875 0.734375 0.5 1.25 0.65625 
0.53125 1.25 0.625 0.53125 1.17188 0 0.546875 1.20312 0 
0.421875 1.35938 0.828125 0.40625 1.34375 0.8125 0.484375 0.9375 0.859375 
0.46875 0.953125 0.453125 0.5 1.0625 0 0.484375 0.578125 0.71875 
0.46875 0.984375 0.265625 
METADATA
INFORMATION 2
NAME L2_NORM_RANGE LOCATION vtkDataArray
DATA 2 0.603942 1.72541 
NAME L2_NORM_FINITE_RANGE LOCATION vtkDataArray
DATA 2 0.603942 1.72541 

CELLS 93 279
2 0 1 
2 2 3 
2 0 4 
2 5 6 
2 7 8 
2 9 10 
2 11 12 
2 13 14 
2 15 16 
2 17 18 
2 19 20 
2 21 22 
2 21 23 
2 24 25 
2 26 27 
2 28 29 
2 30 31 
2 17 32 
2 30 33 
2 34 35 
2 36 37 
2 38 39 
2 34 40 
2 41 42 
2 43 44 
2 45 46 
2 47 48 
2 47 49 
2 50 51 
2 52 53 
2 54 55 
2 56 55 
2 57 58 
2 59 60 
2 61 62 
2 63 64 
2 65 66 
2 67 68 
2 69 70 
2 71 72 
2 73 74 
2 75 76 
2 77 78 
2 79 80 
2 81 82 
2 83 84 
2 85 86 
2 87 88 
2 5 0 
2 89 21 
2 90 17 
2 24 30 
2 91 34 
2 92 47 
2 55 60 
2 2 5 
2 38 24 
2 60 58 
2 7 2 
2 91 38 
2 58 62 
2 11 7 
2 93 91 
2 62 68 
2 19 11 
2 68 53 
2 89 19 
2 53 64 
2 26 89 
2 64 66 
2 13 26 
2 66 70 
2 15 13 
2 70 76 
2 9 15 
2 76 72 
2 36 9 
2 72 78 
2 28 36 
2 78 74 
2 90 28 
2 74 80 
2 93 90 
2 80 50 
2 41 93 
2 50 92 
2 88 41 
2 92 45 
2 43 88 
2 45 84 
2 82 43 
2 84 86 
2 86 82 

CELL_TYPES 93
3
3
3
3
3
3
3
3
3
3
3
3
3
3
3
3
3
3
3
3
3
3
3
3
3
3
3
3
3
3
3
3
3
3
3
3
3
3
3
3
3
3
3
3
3
3
3
3
3
3
3
3
3
3
3
3
3
3
3
3
3
3
3
3
3
3
3
3
3
3
3
3
3
3
3
3
3
3
3
3
3
3
3
3
3
3
3
3
3
3
3
3
3

CELL_DATA 93
SCALARS SegmentationId int
LOOKUP_TABLE default
92 91 90 89 88 87 86 85 84 
83 82 81 80 79 78 77 76 75 
74 73 72 71 70 69 68 67 66 
65 64 0 1 2 3 4 5 6 
7 8 9 10 11 12 13 14 15 
16 17 18 63 53 55 49 48 44 
20 61 52 22 62 46 21 60 41 
23 58 26 54 19 42 24 51 25 
57 27 56 30 59 28 47 31 50 
29 43 32 39 37 36 45 38 40 
33 34 35 
METADATA
INFORMATION 0

FIELD FieldData 4
upNodeId 1 93 int
0 2 4 5 7 9 11 13 15 
17 19 21 23 24 26 28 30 32 
33 34 36 38 40 41 43 45 47 
49 50 53 55 55 58 60 62 64 
66 68 70 72 74 76 78 80 82 
84 86 88 1 22 18 31 35 48 
60 6 25 58 3 39 62 8 91 
68 12 53 20 64 89 66 27 70 
14 76 16 72 10 78 37 74 29 
80 90 51 93 92 42 46 88 84 
44 86 82 
METADATA
INFORMATION 0

downNodeId 1 93 int
1 3 1 6 8 10 12 14 16 
18 20 22 22 25 27 29 31 18 
31 35 37 39 35 42 44 46 48 
48 51 52 54 56 57 59 61 63 
65 67 69 71 73 75 77 79 81 
83 85 87 6 89 90 25 91 92 
55 3 39 60 8 91 58 12 93 
62 20 68 89 53 27 64 14 66 
16 70 10 76 37 72 29 78 90 
74 93 80 42 51 88 92 44 46 
82 84 86 
METADATA
INFORMATION 0

RegionSize 1 93 int
15 62 6 15 4 60 13 34 33 
25 6 12 9 58 5 38 14 2 
13 34 5 8 2 5 0 577 451 
69 91 7145 86930 57 12 1 2 44 
6 0 12 10 7 10 0 30 15 
7 2 10 46 6 117 1 4 23 
73198 15 35 17872 459 51 53756 259 19 
13530 156 95307 200 80021 242 17728 178 38793 
145 2328 187 1276 341 1442 347 516 822 
9407 111 5555 518 266 4327 125 1319 3653 
2569 845 113 
METADATA
INFORMATION 0

RegionSpan 1 93 double
0.125 0.071602746844 0.046875 0.11158481985 0.046875 0.079672180116 0.046875 0.046875 0.049410589039 
0.056336738169 0.038273278624 0.049410589039 0.038273278624 0.058463398367 0.022097086534 0.064423523843 0.027063293383 0.027063293383 
0.034938562661 0.049410589039 0.015625 0.022097086534 0.03125 0.03125 0.015625 0.068107798696 0.453125 
0.296875 0.21875 0.65158313513 0.45366346836 0.079672180116 0.058463398367 0.027063293383 0.015625 0.091108620167 
0.038273278624 0.015625 0.054126586765 0.015625 0.034938562661 0.03125 0.015625 0.069877125323 0.046875 
0.044194173068 0.034938562661 0.027063293383 0.066291257739 0.049410589039 0.11481983215 0.058463398367 0.0625 0.41162312031 
0.43244850636 0.038273278624 0.11048543453 0.32775276899 0.22426094115 0.15467961133 0.3179217279 0.14149039984 0.27863365412 
0.46245777607 0.2390165329 1.3289519548 0.21986323595 1.3847311735 0.26608416438 0.36376395822 0.079672180116 0.091108620167 
0.08558165282 0.33874192834 0.25958198309 0.23644915223 0.32663351297 0.25242960453 0.41132646799 0.47392970324 0.51822263002 
0.35971450806 0.19008633494 0.76434844732 0.72044634819 0.50606673956 0.36510378122 0.022097086534 0.46718490124 0.6792832613 
0.35971450806 0.62695008516 0.75097590685 
METADATA
INFORMATION 0

POINT_DATA 94
FIELD FieldData 2
Scalar 1 94 float
0.640422 0.682242 0.612653 0.676285 0.670553 0.618401 0.644654 0.547097 0.576919 
0.46093 0.568182 0.523174 0.566676 0.475793 0.564674 0.46982 0.549383 0.45732 
0.538079 0.512022 0.53629 0.501165 0.529729 0.528604 0.437451 0.523888 0.48556 
0.511114 0.434593 0.500028 0.441163 0.49219 0.485528 0.480276 0.412554 0.470693 
0.446774 0.470543 0.423535 0.451236 0.437662 0.392031 0.434835 0.297018 0.32769 
0.189217 0.272753 0.189777 0.272525 0.236606 0.18557 0.233756 0 0.0499143 
0.000643176 0.0297529 0.00561092 0.0107498 0.0411224 0.0120536 0.0398494 0.0208304 0.0452119 
0.0211118 0.0521402 0.021229 0.0547771 0.0235263 0.0461358 0.0425787 0.0825011 0.0590261 
0.0925023 0.0633659 0.0981337 0.0660673 0.0887031 0.0689236 0.096471 0.0833576 0.143971 
0.194329 0.256819 0.213924 0.241955 0.228136 0.255079 0.296446 0.31804 0.498016 
0.407167 0.408922 0.187726 0.404551 
METADATA
INFORMATION 0

ttkMaskScalarField 1 94 char
0 0 0 0 0 0 0 0 0 
0 0 0 0 0 0 0 0 0 
0 0 0 0 0 0 0 0 0 
0 0 0 0 0 0 0 0 0 
0 0 0 0 0 0 0 0 0 
0 0 0 0 0 0 0 0 0 
0 0 0 0 0 0 0 0 0 
0 0 0 0 0 0 0 0 0 
0 0 0 0 0 0 0 0 0 
0 0 0 0 0 0 0 0 0 
0 0 0 0 
METADATA
INFORMATION 0

