# vtk DataFile Version 4.2
vtk output
ASCII
DATASET UNSTRUCTURED_GRID
POINTS 42 float
0.46875 1.15625 0.78125 0.46875 1.17188 0.703125 0.484375 1.125 0.8125 
0.484375 1.07812 0.875 0.5 1.09375 0.890625 0.46875 1.09375 0.59375 
0.5 1.09375 0.546875 0.46875 0.859375 0.234375 0.46875 1.01562 0 
0.484375 0.875 0.578125 0.484375 0.84375 0.5625 0.46875 0.953125 0.421875 
0.484375 0.9375 0.40625 0.4375 1.07812 0.515625 0.421875 1.07812 0.515625 
0.53125 0.53125 0.234375 0.53125 0.53125 0.734375 0.453125 0.578125 0.6875 
0.421875 0.53125 0.6875 0.421875 0.53125 0.21875 0.421875 0.53125 0 
0.53125 0.53125 0 0.46875 0.453125 0 0.578125 0.140625 0.1875 
0.25 1.0625 0.875 0.46875 1.21875 0.25 0.640625 0.875 0.25 
0.609375 1.0625 0.796875 0.625 1.03125 0.75 0.625 1.01562 0.734375 
0.609375 1.03125 0.6875 0.359375 1.01562 0.546875 0.359375 1.03125 0.546875 
0.546875 0.859375 0.234375 0.578125 0.859375 0.21875 0.40625 0.859375 0.25 
0.390625 0.875 0.1875 0.59375 1.10938 0.59375 0.59375 1.09375 0.59375 
0.375 1.04688 0.921875 0.34375 1.04688 0.921875 0.484375 0.578125 0.71875 

METADATA
INFORMATION 2
NAME L2_NORM_RANGE LOCATION vtkDataArray
DATA 2 0.623827 1.4965 
NAME L2_NORM_FINITE_RANGE LOCATION vtkDataArray
DATA 2 0.623827 1.4965 

CELLS 41 123
2 0 1 
2 0 2 
2 3 4 
2 5 6 
2 7 8 
2 9 10 
2 11 12 
2 13 14 
2 15 16 
2 17 18 
2 19 20 
2 15 21 
2 22 23 
2 24 25 
2 26 27 
2 28 29 
2 30 29 
2 31 32 
2 33 34 
2 35 36 
2 37 38 
2 39 40 
2 3 0 
2 41 15 
2 29 27 
2 5 3 
2 27 38 
2 9 5 
2 38 25 
2 11 9 
2 25 32 
2 7 11 
2 32 23 
2 13 7 
2 23 40 
2 17 13 
2 40 34 
2 41 17 
2 34 36 
2 19 41 
2 36 19 

CELL_TYPES 41
3
3
3
3
3
3
3
3
3
3
3
3
3
3
3
3
3
3
3
3
3
3
3
3
3
3
3
3
3
3
3
3
3
3
3
3
3
3
3
3
3

CELL_DATA 41
SCALARS SegmentationId int
LOOKUP_TABLE default
40 39 38 37 36 35 34 33 32 
31 30 29 0 1 2 3 4 5 
6 7 8 9 28 21 13 27 12 
26 17 24 11 23 14 25 10 22 
18 20 15 19 16 
METADATA
INFORMATION 0

FIELD FieldData 4
upNodeId 1 41 int
0 2 3 5 7 9 11 13 15 
17 19 21 23 25 27 29 29 32 
34 36 38 40 1 16 27 4 38 
6 25 10 32 12 23 8 40 14 
34 18 36 41 20 
METADATA
INFORMATION 0

downNodeId 1 41 int
1 1 4 6 8 10 12 14 16 
18 20 16 22 24 26 28 30 31 
33 35 37 39 4 41 29 6 27 
10 38 12 25 8 32 14 23 18 
40 41 34 20 36 
METADATA
INFORMATION 0

RegionSize 1 41 int
103 19 28 40 192 4 3 0 450 
587 94 64 6188 64060 42561 16 17 5 
6 11 2 5 234 27 1 223 19647 
726 8230 65 52190 1220 129762 80 148782 8344 
6942 8 8876 292 24142 
METADATA
INFORMATION 0

RegionSpan 1 41 double
0.079672180116 0.046875 0.027063293383 0.056336738169 0.2816836834 0.034938562661 0.027063293383 0.015625 0.5 
0.056336738169 0.21875 0.234375 0.3804936111 0.68036067486 0.57896900177 0.022097086534 0.051822263747 0.015625 
0.034938562661 0.066291257739 0.015625 0.03125 0.12303137034 0.48889023066 0.079672180116 0.28211671114 0.20610789955 
0.21986323595 0.38654115796 0.17539018393 0.3677688241 0.20963136852 0.9849948287 0.35767260194 1.1897593737 0.52894723415 
0.76450812817 0.044194173068 0.1907274276 0.50606673956 0.34657925367 
METADATA
INFORMATION 0

POINT_DATA 42
FIELD FieldData 2
Scalar 1 42 float
0.591155 0.658231 0.619375 0.538369 0.576359 0.513227 0.570643 0.390242 0.537214 
0.457676 0.489014 0.452956 0.476155 0.387205 0.410838 0.190476 0.272401 0.188077 
0.272097 0.184657 0.233917 0.233663 0 0.0499021 0.00140874 0.0419321 0.00183694 
0.0351647 0.00894454 0.0335501 0.0100128 0.0138405 0.0460761 0.0154234 0.0605116 0.0166064 
0.067778 0.017414 0.0404757 0.0329491 0.0574656 0.187954 
METADATA
INFORMATION 0

ttkMaskScalarField 1 42 char
0 0 0 0 0 0 0 0 0 
0 0 0 0 0 0 0 0 0 
0 0 0 0 0 0 0 0 0 
0 0 0 0 0 0 0 0 0 
0 0 0 0 0 0 
METADATA
INFORMATION 0

