# vtk DataFile Version 4.2
vtk output
ASCII
DATASET UNSTRUCTURED_GRID
POINTS 48 float
0.46875 1.26562 0.734375 0.46875 1.26562 0.703125 0.46875 1.15625 0.78125 
0.46875 1.17188 0.796875 0.46875 1.1875 0.765625 0.5 1.10938 0.921875 
0.46875 1.09375 0.953125 0.5 1.17188 0.890625 0.5 1.15625 0.875 
0.5 1.15625 0.90625 0.453125 1.10938 0.59375 0.515625 1.15625 0.5625 
0.46875 0.890625 0.234375 0.484375 1.03125 0.03125 0.484375 1.03125 0.484375 
0.453125 1 0.4375 0.484375 0.828125 0.609375 0.484375 0.890625 0.5625 
0.484375 0.953125 0.625 0.484375 0.90625 0.625 0.484375 0.96875 0.421875 
0.484375 0.96875 0.40625 0.53125 0.53125 0.3125 0.53125 0.53125 0.734375 
0.453125 0.578125 0.6875 0.421875 0.53125 0.6875 0.53125 0.53125 0.015625 
0.421875 0.53125 0.21875 0.421875 0.53125 0 0.46875 0.453125 0 
0.609375 0.046875 0.40625 0.703125 1.10938 0.90625 0.625 1.125 0.875 
0.25 1.125 0.609375 0.46875 1.20312 0.5 0.328125 1.03125 0.765625 
0.328125 1.0625 0.765625 0.609375 1.14062 0.875 0.609375 1.0625 0.671875 
0.625 1.04688 0.703125 0.359375 1.03125 0.578125 0.34375 1.03125 0.5625 
0.40625 0.890625 0.265625 0.375 0.90625 0.1875 0.5625 0.890625 0.234375 
0.578125 0.890625 0.234375 0.484375 0.578125 0.71875 0.484375 1.14062 0.84375 

METADATA
INFORMATION 2
NAME L2_NORM_RANGE LOCATION vtkDataArray
DATA 2 0.651958 1.59574 
NAME L2_NORM_FINITE_RANGE LOCATION vtkDataArray
DATA 2 0.651958 1.59574 

CELLS 47 141
2 0 1 
2 2 3 
2 0 4 
2 5 6 
2 7 8 
2 7 9 
2 10 11 
2 12 13 
2 14 15 
2 16 17 
2 18 19 
2 20 21 
2 22 23 
2 24 25 
2 22 26 
2 27 28 
2 29 30 
2 31 32 
2 33 34 
2 35 36 
2 37 32 
2 38 39 
2 40 41 
2 42 43 
2 44 45 
2 2 0 
2 5 7 
2 46 22 
2 32 34 
2 47 2 
2 47 5 
2 34 36 
2 10 47 
2 36 39 
2 14 10 
2 39 41 
2 18 14 
2 41 30 
2 16 18 
2 30 45 
2 20 16 
2 45 43 
2 12 20 
2 43 27 
2 24 12 
2 27 46 
2 46 24 

CELL_TYPES 47
3
3
3
3
3
3
3
3
3
3
3
3
3
3
3
3
3
3
3
3
3
3
3
3
3
3
3
3
3
3
3
3
3
3
3
3
3
3
3
3
3
3
3
3
3
3
3

CELL_DATA 47
SCALARS SegmentationId int
LOOKUP_TABLE default
46 45 44 43 42 41 40 39 38 
37 36 35 34 33 32 31 0 1 
2 3 4 5 6 7 8 30 27 
20 10 29 28 11 18 12 26 13 
24 14 22 9 23 16 21 15 25 
17 19 
METADATA
INFORMATION 0

FIELD FieldData 4
upNodeId 1 47 int
0 2 4 5 7 9 10 12 14 
16 18 20 22 24 26 27 30 32 
34 36 32 39 41 43 45 1 8 
23 34 3 6 36 47 39 11 41 
15 30 19 45 17 43 21 28 13 
46 25 
METADATA
INFORMATION 0

downNodeId 1 47 int
1 3 1 6 8 8 11 13 15 
17 19 21 23 25 23 28 29 31 
33 35 37 38 40 42 44 3 6 
46 32 47 47 34 11 36 15 39 
19 41 17 30 21 45 13 43 25 
28 46 
METADATA
INFORMATION 0

RegionSize 1 47 int
44 26 17 20 4 3 49 202 9 
11 7 13 446 579 71 94 6528 49424 
56023 4 7 11 2 12 7 32 8 
32 12426 604 41 1690 11 9475 197 40140 
109 155150 245 155869 648 1397 862 21762 9552 
311 66 
METADATA
INFORMATION 0

RegionSpan 1 47 double
0.03125 0.022097086534 0.084143199027 0.046875 0.022097086534 0.022097086534 0.084143199027 0.24754655361 0.064423523843 
0.078125 0.046875 0.015625 0.421875 0.056336738169 0.296875 0.21875 0.59148418903 0.08558165282 
0.25674495101 0.03125 0.022097086534 0.038273278624 0.022097086534 0.08558165282 0.015625 0.11899645627 0.069877125323 
0.41162312031 0.41369381547 0.066291257739 0.08558165282 0.33182439208 0.25387620926 0.30378472805 0.13799625635 0.31483501196 
0.16086922586 1.0314867496 0.12597277761 0.86164474487 0.234375 0.20904825628 0.20372506976 0.37920814753 0.55065655708 
0.50606673956 0.044194173068 
METADATA
INFORMATION 0

POINT_DATA 48
FIELD FieldData 2
Scalar 1 48 float
0.625195 0.666936 0.607732 0.654337 0.653659 0.530634 0.590476 0.538317 0.565462 
0.562777 0.506643 0.560672 0.395888 0.52894 0.490724 0.518204 0.467808 0.515313 
0.483807 0.511349 0.430875 0.476932 0.190095 0.271951 0.188425 0.271658 0.235185 
0.184414 0.234084 0 0.0499141 0.000571228 0.0357251 0.000586701 0.0390693 0.0120254 
0.0392893 0.0127738 0.0151967 0.0403823 0.0217373 0.0436417 0.035799 0.0728663 0.0456503 
0.0708861 0.187457 0.507387 
METADATA
INFORMATION 0

ttkMaskScalarField 1 48 char
0 0 0 0 0 0 0 0 0 
0 0 0 0 0 0 0 0 0 
0 0 0 0 0 0 0 0 0 
0 0 0 0 0 0 0 0 0 
0 0 0 0 0 0 0 0 0 
0 0 0 
METADATA
INFORMATION 0

