# vtk DataFile Version 4.2
vtk output
ASCII
DATASET UNSTRUCTURED_GRID
POINTS 60 float
0.484375 1.21875 0.796875 0.484375 1.17188 0.734375 0.46875 1.10938 0.640625 
0.453125 1.17188 0.671875 0.453125 1.23438 0.8125 0.46875 1.15625 0.875 
0.46875 1.15625 0.625 0.453125 1.23438 0.796875 0.46875 1.03125 0.46875 
0.453125 1.09375 0.515625 0.46875 1.09375 0.84375 0.46875 1.04688 0.828125 
0.5 1.35938 0.765625 0.484375 1.375 0.765625 0.484375 1.01562 0.03125 
0.484375 1.07812 0 0.46875 0.953125 0.640625 0.46875 0.9375 0.65625 
0.484375 1.01562 0.4375 0.46875 1.01562 0.046875 0.46875 0.875 0.9375 
0.46875 0.96875 0.9375 0.484375 0.96875 0.078125 0.484375 0.96875 0.09375 
0.46875 0.96875 0.5 0.46875 0.890625 0.53125 0.421875 1.21875 0.765625 
0.40625 1.21875 0.765625 0.421875 0.53125 0.28125 0.421875 0.53125 0.734375 
0.53125 0.53125 0.21875 0.53125 0.53125 0.71875 0.421875 0.53125 0 
0.53125 0.53125 0 0.53125 1.96875 0.21875 0.46875 1.28125 0 
0.46875 0.453125 0 0.234375 0.046875 0.3125 0.734375 1.10938 0.71875 
0.34375 1.1875 0.59375 0.515625 1.23438 0.96875 0.4375 1.23438 0.984375 
0.359375 1.17188 0.625 0.359375 1.09375 0.53125 0.328125 1.07812 0.53125 
0.515625 1.23438 0.53125 0.5 1.23438 0.515625 0.5625 0.90625 0.25 
0.578125 0.90625 0.25 0.546875 1.21875 0.953125 0.546875 1.21875 0.96875 
0.390625 0.90625 0.234375 0.375 0.90625 0.1875 0.484375 1.375 0.734375 
0.40625 1.35938 0.734375 0.453125 1.21875 0.703125 0.515625 1.10938 0.5625 
0.46875 0.578125 0.734375 0.484375 0.578125 0.75 0.46875 0.90625 0.21875 

METADATA
INFORMATION 2
NAME L2_NORM_RANGE LOCATION vtkDataArray
DATA 2 0.393427 2.05087 
NAME L2_NORM_FINITE_RANGE LOCATION vtkDataArray
DATA 2 0.393427 2.05087 

CELLS 59 177
2 0 1 
2 2 3 
2 4 5 
2 2 6 
2 0 7 
2 8 9 
2 10 11 
2 12 13 
2 14 15 
2 16 17 
2 8 18 
2 14 19 
2 20 21 
2 22 23 
2 24 25 
2 26 27 
2 28 29 
2 30 31 
2 28 32 
2 30 33 
2 34 35 
2 36 37 
2 38 39 
2 40 41 
2 42 39 
2 43 44 
2 45 46 
2 47 48 
2 49 50 
2 51 52 
2 53 54 
2 55 2 
2 55 0 
2 56 8 
2 22 14 
2 57 28 
2 58 30 
2 39 44 
2 4 55 
2 59 22 
2 44 46 
2 10 4 
2 46 37 
2 12 10 
2 37 34 
2 16 12 
2 34 50 
2 56 16 
2 50 41 
2 20 56 
2 41 48 
2 26 20 
2 48 52 
2 24 26 
2 52 54 
2 59 24 
2 54 58 
2 57 59 
2 58 57 

CELL_TYPES 59
3
3
3
3
3
3
3
3
3
3
3
3
3
3
3
3
3
3
3
3
3
3
3
3
3
3
3
3
3
3
3
3
3
3
3
3
3
3
3
3
3
3
3
3
3
3
3
3
3
3
3
3
3
3
3
3
3
3
3

CELL_DATA 59
SCALARS SegmentationId int
LOOKUP_TABLE default
58 57 56 55 54 53 52 51 50 
49 48 47 46 45 44 43 42 41 
40 39 38 0 1 2 3 4 5 
6 7 8 9 36 37 34 31 25 
24 11 23 28 13 35 14 33 10 
32 19 30 16 22 12 29 15 26 
17 27 18 21 20 
METADATA
INFORMATION 0

FIELD FieldData 4
upNodeId 1 59 int
0 2 4 6 7 8 10 12 14 
16 18 19 20 22 24 26 28 30 
32 33 34 37 39 41 39 44 46 
48 50 52 54 3 1 9 15 29 
31 44 55 23 46 5 37 11 35 
13 50 17 41 56 48 21 52 27 
54 25 58 59 57 
METADATA
INFORMATION 0

downNodeId 1 59 int
1 3 5 3 1 9 11 13 15 
17 9 15 21 23 25 27 29 31 
29 31 35 36 38 40 42 43 45 
47 49 51 53 55 55 56 23 57 
58 39 5 59 44 11 46 13 37 
17 35 56 50 21 41 27 48 25 
52 59 54 57 58 
METADATA
INFORMATION 0

RegionSize 1 59 int
113 13 88 23 18 44 13 2 26 
6 9 7 19 5 22 3 548 462 
76 67 6403 6931 81615 7 17 6 0 
7 1 15 15 25 13 18 39 5 
13 102124 71 99 79427 22 59940 449 47868 
23 95726 266 739 614 959 147 11130 85 
8668 875 7931 10253 118 
METADATA
INFORMATION 0

RegionSpan 1 59 double
0.078125 0.071602746844 0.10126157105 0.049410589039 0.034938562661 0.079672180116 0.049410589039 0.022097086534 0.069877125323 
0.022097086534 0.038273278624 0.022097086534 0.09375 0.015625 0.084143199027 0.015625 0.453125 0.5 
0.28125 0.21875 0.72416436672 0.56358402967 0.41751214862 0.079672180116 0.038273278624 0.034938562661 0.022097086534 
0.015625 0.015625 0.049410589039 0.079672180116 0.12693810463 0.098821178079 0.13072812557 0.066291257739 0.45794847608 
0.53537005186 0.12693810463 0.11048543453 0.15467961133 0.23280726373 0.14490029216 1.2336825132 0.27863365412 1.9469276667 
0.4261931777 1.06077528 0.18087245524 0.11158481985 0.4446952939 0.81654644012 0.38717225194 0.21252298355 0.3677688241 
0.71089458466 0.28811076283 0.78530198336 0.61117523909 0.022097086534 
METADATA
INFORMATION 0

POINT_DATA 60
FIELD FieldData 2
Scalar 1 60 float
0.562783 0.670934 0.577788 0.625498 0.546451 0.619595 0.602865 0.59432 0.493658 
0.59228 0.544762 0.581553 0.507642 0.548859 0.472165 0.52988 0.505395 0.529879 
0.523898 0.520967 0.454275 0.486965 0.439846 0.48018 0.442339 0.474094 0.446512 
0.470156 0.190257 0.272072 0.1896 0.271745 0.240442 0.233174 0.0501996 0.0864868 
0 0.0499037 0.000473262 0.032968 0.010042 0.0659629 0.0104697 0.0193377 0.0444205 
0.0217808 0.0488015 0.0308165 0.0669328 0.0400616 0.0653192 0.0651728 0.0868468 0.0944738 
0.122084 0.559015 0.486933 0.189927 0.188628 0.405846 
METADATA
INFORMATION 0

ttkMaskScalarField 1 60 char
0 0 0 0 0 0 0 0 0 
0 0 0 0 0 0 0 0 0 
0 0 0 0 0 0 0 0 0 
0 0 0 0 0 0 0 0 0 
0 0 0 0 0 0 0 0 0 
0 0 0 0 0 0 0 0 0 
0 0 0 0 0 0 
METADATA
INFORMATION 0

