# vtk DataFile Version 4.2
vtk output
ASCII
DATASET UNSTRUCTURED_GRID
POINTS 88 float
0.484375 1.32812 0.765625 0.484375 1.3125 0.78125 0.484375 1.35938 0.75 
0.484375 1.26562 0.6875 0.484375 1.17188 0.703125 0.484375 1.39062 0.75 
0.46875 1.42188 0.75 0.484375 1.35938 0.8125 0.46875 1.34375 0.828125 
0.484375 1.35938 0.625 0.4375 1.3125 0.625 0.5 1.34375 0.640625 
0.46875 1.21875 0.84375 0.46875 1.14062 0.859375 0.4375 1.21875 0.59375 
0.453125 1.1875 0.59375 0.46875 1.10938 0.828125 0.484375 1.0625 0.8125 
0.484375 1 0.828125 0.484375 0.921875 0.8125 0.484375 0.9375 0.671875 
0.484375 0.921875 0.640625 0.484375 1.04688 0.84375 0.484375 0.921875 0.84375 
0.484375 1.17188 0.53125 0.484375 1.125 0.453125 0.46875 0.890625 0.953125 
0.484375 0.96875 0.96875 0.46875 1.04688 0.078125 0.46875 1.09375 0.046875 
0.46875 0.84375 0.90625 0.484375 0.921875 0.921875 0.46875 0.96875 0.3125 
0.46875 1.03125 0.375 0.46875 0.875 0.625 0.484375 0.875 0.609375 
0.5 0.9375 0.59375 0.484375 1.01562 0.578125 0.46875 0.875 0.5625 
0.484375 0.90625 0.546875 0.5 1.34375 0.875 0.53125 1.34375 0.875 
0.484375 0.921875 0.53125 0.484375 0.90625 0.5 0.484375 0.984375 0.15625 
0.46875 1 0.09375 0.5 1.01562 0.453125 0.46875 0.9375 0.453125 
0.46875 0.984375 0.015625 0.46875 0.890625 0 0.484375 0.96875 0.265625 
0.484375 0.96875 0.21875 0.484375 0.96875 0.203125 0.46875 0.96875 0.1875 
0.484375 0.96875 0.28125 0.484375 0.953125 0.03125 0.484375 0.921875 0.046875 
0.484375 0.578125 0.78125 0.53125 0.53125 0.734375 0.46875 0.578125 0.796875 
0.421875 0.53125 0.75 0.421875 1.09375 0.984375 0.421875 1.125 0.984375 
0.53125 0.53125 0.296875 0.53125 0.53125 0.015625 0.421875 0.53125 0.234375 
0.421875 0.53125 0 0.5 1.9375 0.3125 0.5 1.40625 0 
0.46875 0.453125 0 0.78125 0.125 0.5625 0.71875 1.23438 0.890625 
0.390625 0.953125 0.25 0.359375 0.96875 0.234375 0.5625 0.953125 0.234375 
0.59375 0.96875 0.28125 0.40625 1.10938 0.484375 0.390625 1.10938 0.53125 
0.421875 1.09375 0.453125 0.40625 1.09375 0.46875 0.578125 1.20312 0.8125 
0.578125 1.1875 0.828125 0.4375 1.1875 0.953125 0.40625 1.15625 0.90625 
0.453125 1.32812 0.78125 0.4375 1.32812 0.765625 0.515625 1.35938 0.65625 
0.484375 1.04688 0.40625 
METADATA
INFORMATION 2
NAME L2_NORM_RANGE LOCATION vtkDataArray
DATA 2 0.651958 2.02523 
NAME L2_NORM_FINITE_RANGE LOCATION vtkDataArray
DATA 2 0.651958 2.02523 

CELLS 87 261
2 0 1 
2 0 2 
2 3 4 
2 5 6 
2 7 8 
2 9 10 
2 9 11 
2 12 13 
2 14 15 
2 16 17 
2 18 19 
2 20 21 
2 22 23 
2 24 25 
2 26 27 
2 28 29 
2 30 31 
2 32 33 
2 34 35 
2 36 37 
2 38 39 
2 40 41 
2 42 43 
2 44 45 
2 46 47 
2 48 49 
2 50 51 
2 52 53 
2 32 54 
2 55 56 
2 57 58 
2 59 60 
2 61 62 
2 63 64 
2 65 66 
2 67 68 
2 69 70 
2 71 67 
2 72 73 
2 74 75 
2 76 77 
2 78 79 
2 80 81 
2 82 83 
2 84 85 
2 5 0 
2 86 9 
2 50 32 
2 67 70 
2 7 5 
2 52 50 
2 70 73 
2 3 7 
2 44 52 
2 73 75 
2 86 3 
2 87 44 
2 75 77 
2 12 86 
2 77 79 
2 14 12 
2 79 83 
2 22 14 
2 83 65 
2 16 22 
2 65 63 
2 20 16 
2 63 57 
2 18 20 
2 57 59 
2 34 18 
2 59 81 
2 38 34 
2 81 61 
2 30 38 
2 61 55 
2 36 30 
2 55 48 
2 26 36 
2 48 28 
2 40 26 
2 28 87 
2 42 40 
2 87 85 
2 24 42 
2 85 46 
2 46 24 

CELL_TYPES 87
3
3
3
3
3
3
3
3
3
3
3
3
3
3
3
3
3
3
3
3
3
3
3
3
3
3
3
3
3
3
3
3
3
3
3
3
3
3
3
3
3
3
3
3
3
3
3
3
3
3
3
3
3
3
3
3
3
3
3
3
3
3
3
3
3
3
3
3
3
3
3
3
3
3
3
3
3
3
3
3
3
3
3
3
3
3
3

CELL_DATA 87
SCALARS SegmentationId int
LOOKUP_TABLE default
86 85 84 83 82 81 80 79 78 
77 76 75 74 73 72 71 70 69 
68 67 66 65 64 63 62 61 60 
59 58 57 56 55 54 53 52 51 
0 1 2 3 4 5 6 7 8 
50 46 35 10 48 27 9 47 26 
11 49 29 12 21 13 45 14 44 
16 40 22 43 24 41 23 42 18 
34 15 32 25 36 28 33 37 38 
20 31 19 30 17 39 
METADATA
INFORMATION 0

FIELD FieldData 4
upNodeId 1 87 int
0 2 3 5 7 9 11 12 14 
16 18 20 22 24 26 28 30 32 
34 36 38 40 42 44 46 48 50 
52 54 55 57 59 61 63 65 67 
70 68 73 75 77 79 81 83 85 
1 10 33 70 6 51 73 8 53 
75 4 45 77 86 79 13 83 15 
66 23 64 17 58 21 60 19 81 
35 62 39 56 31 49 37 29 27 
87 41 85 43 47 25 
METADATA
INFORMATION 0

downNodeId 1 87 int
1 1 4 6 8 10 10 13 15 
17 19 21 23 25 27 29 31 33 
35 37 39 41 43 45 47 49 51 
53 33 56 58 60 62 64 66 68 
69 71 72 74 76 78 80 82 84 
6 86 51 68 8 53 70 4 45 
73 86 87 75 13 77 15 79 23 
83 17 66 21 64 19 58 35 60 
39 81 31 62 37 56 27 49 41 
29 43 87 25 85 47 
METADATA
INFORMATION 0

RegionSize 1 87 int
26 18 14 4 15 26 9 6 8 
9 11 24 10 94 13 95 20 47 
11 9 9 9 9 43 11 18 6 
9 2 11 450 574 9 72 94 5304 
7357 322054 13 22 8 4 17 7 10 
5 19 1 12179 32 12 132506 136 5 
7045 72 11 10931 97 564 111 1495 392 
6266 91 275 156 46 10 16 312 65 
207 3430 7 8945 87 305 131 58 55 
86 243 90 633 315 167 
METADATA
INFORMATION 0

RegionSpan 1 87 double
0.022097086534 0.034938562661 0.095043167472 0.034938562661 0.027063293383 0.066291257739 0.027063293383 0.079672180116 0.034938562661 
0.051822263747 0.079672180116 0.034938562661 0.125 0.091108620167 0.081189878285 0.056336738169 0.081189878285 0.088388346136 
0.022097086534 0.081189878285 0.038273278624 0.03125 0.034938562661 0.066291257739 0.084143199027 0.095043167472 0.046875 
0.022097086534 0.034938562661 0.034938562661 0.081189878285 0.081189878285 0.03125 0.28125 0.234375 0.61634635925 
0.72230774164 0.93619698286 0.038273278624 0.058463398367 0.049410589039 0.022097086534 0.022097086534 0.064423523843 0.022097086534 
0.064423523843 0.044194173068 0.049410589039 1.8511503935 0.069877125323 0.0625 0.99877852201 0.15625 0.049410589039 
0.2390165329 0.10364452749 0.25769409537 0.35147568583 0.2390165329 0.066291257739 0.25194555521 0.44194173813 0.30698254704 
0.91776096821 0.066291257739 0.12597277761 0.23280726373 0.48889023066 0.16828639805 0.022097086534 0.2390165329 0.61990106106 
0.0625 0.24003580213 0.34516751766 0.96546822786 0.32775276899 0.038273278624 0.36376395822 0.088388346136 0.46087127924 
0.32849681377 0.54441410303 0.45874744654 0.25 0.44633927941 0.17539018393 
METADATA
INFORMATION 0

POINT_DATA 88
FIELD FieldData 2
Scalar 1 88 float
0.636235 0.670108 0.664239 0.584791 0.663983 0.633089 0.656751 0.623349 0.647504 
0.591296 0.635206 0.620467 0.559977 0.587622 0.548505 0.576752 0.509741 0.547447 
0.499496 0.54632 0.499898 0.542408 0.516572 0.539967 0.424218 0.537575 0.461212 
0.514936 0.403972 0.514603 0.470775 0.512774 0.415727 0.507912 0.482453 0.505417 
0.467164 0.495312 0.471449 0.49388 0.458338 0.486376 0.449161 0.485615 0.409345 
0.474357 0.418103 0.450674 0.402587 0.446066 0.415236 0.443652 0.412144 0.44101 
0.438685 0.394906 0.424398 0.189433 0.272889 0.189665 0.27185 0.241012 0.266332 
0.18898 0.23635 0.186358 0.233147 0.0497095 0.0823501 0 0.0499071 0.000308822 
0.0431785 0.0713381 0.0444339 0.0841666 0.0991811 0.12486 0.0994622 0.128239 0.106109 
0.190401 0.115222 0.138037 0.379019 0.408681 0.570719 0.406106 
METADATA
INFORMATION 0

ttkMaskScalarField 1 88 char
0 0 0 0 0 0 0 0 0 
0 0 0 0 0 0 0 0 0 
0 0 0 0 0 0 0 0 0 
0 0 0 0 0 0 0 0 0 
0 0 0 0 0 0 0 0 0 
0 0 0 0 0 0 0 0 0 
0 0 0 0 0 0 0 0 0 
0 0 0 0 0 0 0 0 0 
0 0 0 0 0 0 0 0 0 
0 0 0 0 0 0 0 
METADATA
INFORMATION 0

