# vtk DataFile Version 4.2
vtk output
ASCII
DATASET UNSTRUCTURED_GRID
POINTS 54 float
0.453125 1.21875 0.796875 0.484375 1.25 0.71875 0.46875 1.28125 0.828125 
0.46875 1.125 0.5625 0.5 1.125 0.53125 0.453125 1.17188 0.59375 
0.484375 1.07812 0.5 0.46875 1.0625 0.484375 0.484375 1.0625 0.640625 
0.484375 1.04688 0.625 0.484375 1.09375 0.953125 0.4375 1.125 0.96875 
0.484375 1.03125 0.609375 0.484375 1 0.609375 0.5 1.03125 0.921875 
0.46875 0.921875 0.671875 0.46875 0.890625 0.65625 0.484375 1.01562 0.0625 
0.453125 1.03125 0.015625 0.5 0.96875 0.078125 0.484375 0.984375 0.9375 
0.46875 0.96875 0.953125 0.484375 0.921875 0 0.484375 0.890625 0 
0.484375 0.578125 0.8125 0.53125 0.53125 0.734375 0.46875 0.578125 0.796875 
0.421875 0.53125 0.765625 0.421875 0.53125 0.265625 0.421875 0.53125 0 
0.53125 0.53125 0.28125 0.53125 0.53125 0 0.46875 0.453125 0 
0.6875 0.078125 0.453125 0.25 1.14062 0.890625 0.53125 1.21875 0.5 
0.703125 1.125 0.59375 0.640625 1.07812 0.75 0.65625 1.09375 0.6875 
0.328125 1.0625 0.765625 0.3125 1.0625 0.75 0.390625 0.90625 0.234375 
0.375 0.90625 0.203125 0.390625 1.20312 0.5625 0.390625 1.20312 0.546875 
0.375 1.10938 0.8125 0.375 1.10938 0.828125 0.53125 1.09375 0.953125 
0.546875 1.125 0.953125 0.5 1.09375 0 0.484375 1.125 0.015625 
0.453125 1.21875 0.609375 0.515625 1.10938 0.90625 0.46875 0.90625 0.265625 

METADATA
INFORMATION 2
NAME L2_NORM_RANGE LOCATION vtkDataArray
DATA 2 0.651958 1.59597 
NAME L2_NORM_FINITE_RANGE LOCATION vtkDataArray
DATA 2 0.651958 1.59597 

CELLS 53 159
2 0 1 
2 0 2 
2 3 4 
2 3 5 
2 6 7 
2 8 9 
2 10 11 
2 12 13 
2 10 14 
2 15 16 
2 17 18 
2 17 19 
2 20 21 
2 22 23 
2 24 25 
2 26 27 
2 28 29 
2 30 31 
2 32 33 
2 34 35 
2 36 35 
2 37 38 
2 39 40 
2 41 42 
2 43 44 
2 45 46 
2 47 48 
2 49 50 
2 8 0 
2 51 3 
2 52 10 
2 22 17 
2 35 38 
2 51 8 
2 53 22 
2 38 40 
2 12 51 
2 40 33 
2 6 12 
2 33 44 
2 52 6 
2 44 42 
2 15 52 
2 42 46 
2 20 15 
2 46 48 
2 53 20 
2 48 28 
2 50 53 
2 28 30 
2 24 50 
2 30 26 
2 26 24 

CELL_TYPES 53
3
3
3
3
3
3
3
3
3
3
3
3
3
3
3
3
3
3
3
3
3
3
3
3
3
3
3
3
3
3
3
3
3
3
3
3
3
3
3
3
3
3
3
3
3
3
3
3
3
3
3
3
3

CELL_DATA 53
SCALARS SegmentationId int
LOOKUP_TABLE default
52 51 50 49 48 47 46 45 44 
43 42 41 40 39 38 37 36 35 
0 1 2 3 4 5 6 7 8 
9 34 33 30 27 11 31 25 12 
21 13 29 10 32 15 20 14 28 
16 26 17 18 22 19 23 24 
METADATA
INFORMATION 0

FIELD FieldData 4
upNodeId 1 53 int
0 2 3 5 6 8 10 12 14 
15 17 19 20 22 24 26 28 30 
33 35 35 38 40 42 44 46 48 
50 1 4 11 18 38 9 23 40 
51 33 13 44 7 42 52 46 16 
48 21 29 53 31 50 27 25 
METADATA
INFORMATION 0

downNodeId 1 53 int
1 1 4 4 7 9 11 13 11 
16 18 18 21 23 25 27 29 31 
32 34 36 37 39 41 43 45 47 
49 9 51 52 23 35 51 53 38 
13 40 7 33 52 44 16 42 21 
46 53 48 50 29 25 31 27 
METADATA
INFORMATION 0

RegionSize 1 53 int
131 51 27 33 9 2 12 6 7 
7 22 12 5 7 467 589 106 81 
6464 27969 31207 49 2 16 3 7 5 
12 537 3 10 60 13920 9 46 33799 
32 221804 166 136450 75 18696 135 14280 775 
1895 1161 2469 6362 190 3856 44 152 
METADATA
INFORMATION 0

RegionSpan 1 53 double
0.089758791029 0.071602746844 0.044194173068 0.058463398367 0.027063293383 0.022097086534 0.058463398367 0.03125 0.071602746844 
0.034938562661 0.058463398367 0.051822263747 0.027063293383 0.03125 0.10245997459 0.0732877478 0.265625 0.28125 
0.62753391266 0.48764020205 0.21706943214 0.066291257739 0.022097086534 0.034938562661 0.015625 0.015625 0.034938562661 
0.038273278624 0.22316963971 0.10597390682 0.058463398367 0.11267347634 0.25769409537 0.16237975657 0.2665425241 0.35078036785 
0.19008633494 1.0944194794 0.11899645627 1.1672827005 0.40864676237 0.45446997881 0.30378472805 0.65717941523 0.2733258605 
0.21309658885 0.67658233643 0.91696256399 0.33255931735 0.11048543453 0.96647918224 0.521510005 0.022097086534 
METADATA
INFORMATION 0

POINT_DATA 54
FIELD FieldData 2
Scalar 1 54 float
0.603119 0.682294 0.65098 0.52082 0.598485 0.592579 0.50287 0.552409 0.520734 
0.544242 0.503497 0.541982 0.516602 0.539711 0.529945 0.488341 0.525143 0.443678 
0.488716 0.484086 0.446474 0.472313 0.409916 0.431894 0.188946 0.272459 0.186831 
0.271765 0.184418 0.233791 0.186341 0.233651 0 0.0499119 0.000697176 0.0287847 
0.000891715 0.00735264 0.0312549 0.0118141 0.0366846 0.0342664 0.0789621 0.0343988 0.0593552 
0.121252 0.145085 0.134961 0.16239 0.183959 0.258609 0.519812 0.497439 0.398762 

METADATA
INFORMATION 0

ttkMaskScalarField 1 54 char
0 0 0 0 0 0 0 0 0 
0 0 0 0 0 0 0 0 0 
0 0 0 0 0 0 0 0 0 
0 0 0 0 0 0 0 0 0 
0 0 0 0 0 0 0 0 0 
0 0 0 0 0 0 0 0 0 

METADATA
INFORMATION 0

