# vtk DataFile Version 4.2
vtk output
ASCII
DATASET UNSTRUCTURED_GRID
POINTS 62 float
0.46875 1.28125 0.75 0.46875 1.20312 0.796875 0.46875 1.34375 0.671875 
0.46875 1.4375 0.71875 0.46875 1.42188 0.75 0.453125 1.09375 0.734375 
0.46875 1.0625 0.734375 0.5 1.23438 0.859375 0.515625 1.21875 0.859375 
0.484375 1.20312 0.90625 0.46875 1.14062 0.953125 0.484375 1.0625 0.578125 
0.515625 1.21875 0.578125 0.5 0.953125 0.609375 0.484375 0.96875 0.5625 
0.484375 1.04688 0.0625 0.484375 1.09375 0.015625 0.46875 1.01562 0.421875 
0.453125 1.07812 0.453125 0.484375 0.859375 0.90625 0.484375 0.890625 0.921875 
0.46875 1.03125 0.078125 0.484375 0.96875 0.359375 0.46875 0.953125 0.953125 
0.453125 0.96875 0.953125 0.46875 0.96875 0.96875 0.484375 1 0.984375 
0.5 0.9375 0 0.484375 0.875 0 0.46875 0.578125 0.703125 
0.421875 0.53125 0.71875 0.53125 0.53125 0.3125 0.53125 0.53125 0.765625 
0.53125 0.53125 0.015625 0.421875 0.53125 0.21875 0.421875 0.53125 0 
0.46875 0.453125 0 0.59375 0.015625 0.453125 0.71875 1.17188 0.890625 
0.625 1.15625 0.8125 0.609375 1.1875 0.8125 0.625 1.10938 0.703125 
0.640625 1.17188 0.59375 0.421875 1.28125 0.9375 0.40625 1.28125 0.9375 
0.390625 0.9375 0.25 0.375 0.9375 0.1875 0.421875 1.3125 0.546875 
0.375 1.29688 0.546875 0.5625 0.921875 0.25 0.578125 0.9375 0.234375 
0.4375 1.15625 0.546875 0.4375 1.15625 0.5625 0.4375 1.1875 0.578125 
0.421875 1.1875 0.578125 0.53125 1.20312 0.640625 0.546875 1.21875 0.640625 
0.390625 1.17188 0.71875 0.390625 1.17188 0.6875 0.46875 0.921875 0.265625 
0.484375 1.09375 0.484375 0.484375 0.578125 0.71875 
METADATA
INFORMATION 2
NAME L2_NORM_RANGE LOCATION vtkDataArray
DATA 2 0.651958 1.6745 
NAME L2_NORM_FINITE_RANGE LOCATION vtkDataArray
DATA 2 0.651958 1.6745 

CELLS 61 183
2 0 1 
2 0 2 
2 3 4 
2 5 6 
2 7 8 
2 9 10 
2 11 12 
2 13 14 
2 15 16 
2 17 18 
2 19 20 
2 15 21 
2 17 22 
2 23 24 
2 25 26 
2 27 28 
2 29 30 
2 31 32 
2 31 33 
2 34 35 
2 36 37 
2 38 39 
2 40 39 
2 41 42 
2 43 44 
2 45 46 
2 47 48 
2 49 50 
2 51 52 
2 53 54 
2 55 56 
2 57 58 
2 3 0 
2 59 15 
2 60 17 
2 61 31 
2 39 44 
2 5 3 
2 44 42 
2 7 5 
2 42 37 
2 13 7 
2 37 48 
2 9 13 
2 48 46 
2 19 9 
2 46 50 
2 11 19 
2 50 34 
2 60 11 
2 34 52 
2 23 60 
2 52 61 
2 25 23 
2 61 29 
2 59 25 
2 29 54 
2 27 59 
2 54 56 
2 58 27 
2 56 58 

CELL_TYPES 61
3
3
3
3
3
3
3
3
3
3
3
3
3
3
3
3
3
3
3
3
3
3
3
3
3
3
3
3
3
3
3
3
3
3
3
3
3
3
3
3
3
3
3
3
3
3
3
3
3
3
3
3
3
3
3
3
3
3
3
3
3

CELL_DATA 61
SCALARS SegmentationId int
LOOKUP_TABLE default
60 59 58 57 56 55 54 53 52 
51 50 49 48 47 46 45 44 43 
42 41 0 1 2 3 4 5 6 
7 8 9 10 11 40 33 32 27 
13 39 15 38 14 37 12 34 17 
36 16 31 18 35 23 26 19 30 
28 29 25 24 20 22 21 
METADATA
INFORMATION 0

FIELD FieldData 4
upNodeId 1 61 int
0 2 3 5 7 9 11 13 15 
17 19 21 22 23 25 27 29 31 
33 34 37 39 39 42 44 46 48 
50 52 54 56 58 1 16 18 32 
44 4 42 6 37 8 48 14 46 
10 50 20 35 12 52 60 61 24 
30 26 54 59 56 28 58 
METADATA
INFORMATION 0

downNodeId 1 61 int
1 1 4 6 8 10 12 14 16 
18 20 16 18 24 26 28 30 32 
32 35 36 38 40 41 43 45 47 
49 51 53 55 57 4 59 60 61 
39 6 44 8 42 14 37 10 48 
20 46 12 50 60 35 24 52 26 
61 59 30 28 54 58 56 
METADATA
INFORMATION 0

RegionSize 1 61 int
32 51 5 5 14 48 140 9 29 
40 10 3 15 0 9 18 579 448 
69 93 6558 88004 37 24 1 9 6 
11 6 0 2 8 89 133 2 32 
70455 134 3081 401 176845 529 57136 107 83343 
57 849 307 21030 392 78 221 231 590 
106 52 215 76 1200 9237 1015 
METADATA
INFORMATION 0

RegionSpan 1 61 double
0.091108620167 0.10004881769 0.034938562661 0.034938562661 0.022097086534 0.079672180116 0.15934436023 0.051822263747 0.066291257739 
0.071602746844 0.034938562661 0.027063293383 0.079672180116 0.022097086534 0.038273278624 0.064423523843 0.068107798696 0.453125 
0.296875 0.21875 0.64214760065 0.12303137034 0.034938562661 0.12693810463 0.015625 0.064423523843 0.049410589039 
0.027063293383 0.015625 0.015625 0.022097086534 0.03125 0.15934436023 0.2390165329 0.10126157105 0.41162312031 
0.28125 0.34445950389 0.43018436432 0.19390115142 1.1657129526 0.37629982829 1.3031662703 0.38843134046 0.50823301077 
0.34375 0.20846350491 0.3859090209 0.43554249406 0.098821178079 0.71346563101 0.48963874578 0.60069948435 0.022097086534 
0.022097086534 0.70468574762 0.6238270402 0.26791295409 0.14320549369 0.73454117775 0.16973094642 
METADATA
INFORMATION 0

POINT_DATA 62
FIELD FieldData 2
Scalar 1 62 float
0.61882 0.688499 0.676722 0.595838 0.641009 0.575914 0.599319 0.527581 0.573287 
0.477275 0.554012 0.45477 0.549974 0.484163 0.541535 0.469021 0.526422 0.437822 
0.52489 0.473672 0.507106 0.4958 0.461528 0.428594 0.451138 0.409873 0.445973 
0.405962 0.443501 0.188752 0.272155 0.189836 0.271964 0.236978 0.184368 0.234007 
0 0.0499163 0.000265776 0.0323364 0.00792993 0.0087513 0.0413946 0.00898521 0.0411456 
0.0199184 0.0756009 0.0241241 0.0505162 0.0325121 0.0771972 0.159328 0.185326 0.166061 
0.192145 0.178025 0.211237 0.205845 0.227621 0.408275 0.437135 0.187315 
METADATA
INFORMATION 0

ttkMaskScalarField 1 62 char
0 0 0 0 0 0 0 0 0 
0 0 0 0 0 0 0 0 0 
0 0 0 0 0 0 0 0 0 
0 0 0 0 0 0 0 0 0 
0 0 0 0 0 0 0 0 0 
0 0 0 0 0 0 0 0 0 
0 0 0 0 0 0 0 0 
METADATA
INFORMATION 0

