# vtk DataFile Version 4.2
vtk output
ASCII
DATASET UNSTRUCTURED_GRID
POINTS 62 float
0.46875 1.125 0.78125 0.484375 1.25 0.71875 0.46875 1.125 0.84375 
0.453125 1.15625 0.875 0.5 1.10938 0.671875 0.5 1.14062 0.640625 
0.5 1.15625 0.6875 0.46875 1.0625 0.8125 0.46875 1.14062 0.609375 
0.46875 1.125 0.578125 0.484375 1.125 0.921875 0.484375 1.07812 0.953125 
0.46875 0.921875 0.046875 0.484375 1.04688 0 0.484375 0.921875 0.90625 
0.484375 0.96875 0.90625 0.484375 0.875 0.90625 0.46875 0.984375 0.421875 
0.46875 0.96875 0.40625 0.484375 0.96875 0.546875 0.484375 0.953125 0.546875 
0.484375 0.890625 0.9375 0.46875 0.90625 0.953125 0.46875 0.890625 0 
0.46875 0.9375 0.34375 0.46875 0.921875 0.328125 0.46875 0.9375 0.15625 
0.46875 0.90625 0.15625 0.53125 0.53125 0.25 0.53125 0.53125 0.71875 
0.46875 0.578125 0.734375 0.421875 0.53125 0.734375 0.53125 0.53125 0 
0.421875 0.53125 0.21875 0.421875 0.53125 0.03125 0.46875 0.453125 0 
0.578125 0.078125 0.15625 0.734375 1.07812 0.765625 0.53125 1.1875 0 
0.25 1.10938 0.5625 0.5 1.1875 0.984375 0.453125 1.20312 0.984375 
0.59375 1.07812 0.578125 0.59375 1.10938 0.578125 0.609375 1.09375 0.90625 
0.609375 1.09375 0.890625 0.328125 1.03125 0.734375 0.3125 1.03125 0.75 
0.59375 1.125 0.9375 0.625 1.125 0.9375 0.46875 1.25 0.5625 
0.53125 1.23438 0.546875 0.5625 0.890625 0.234375 0.578125 0.890625 0.234375 
0.578125 1.14062 0.953125 0.59375 1.14062 0.953125 0.5 1.1875 0.578125 
0.515625 1.1875 0.578125 0.5 1.09375 0.6875 0.46875 1.01562 0.890625 
0.484375 0.578125 0.78125 0.484375 0.90625 0.203125 
METADATA
INFORMATION 2
NAME L2_NORM_RANGE LOCATION vtkDataArray
DATA 2 0.603942 1.62147 
NAME L2_NORM_FINITE_RANGE LOCATION vtkDataArray
DATA 2 0.603942 1.62147 

CELLS 61 183
2 0 1 
2 2 3 
2 4 5 
2 4 6 
2 0 7 
2 8 9 
2 10 11 
2 12 13 
2 14 15 
2 14 16 
2 17 18 
2 19 20 
2 21 22 
2 12 23 
2 24 25 
2 26 27 
2 28 29 
2 30 31 
2 28 32 
2 33 34 
2 35 36 
2 37 38 
2 39 38 
2 40 41 
2 42 43 
2 44 45 
2 46 47 
2 48 49 
2 50 51 
2 52 53 
2 54 55 
2 56 57 
2 8 4 
2 58 0 
2 59 14 
2 26 12 
2 60 28 
2 38 41 
2 58 8 
2 61 26 
2 41 47 
2 2 58 
2 47 45 
2 10 2 
2 45 36 
2 59 10 
2 36 51 
2 19 59 
2 51 43 
2 17 19 
2 43 49 
2 21 17 
2 49 55 
2 24 21 
2 55 53 
2 61 24 
2 53 57 
2 30 61 
2 57 60 
2 33 30 
2 60 33 

CELL_TYPES 61
3
3
3
3
3
3
3
3
3
3
3
3
3
3
3
3
3
3
3
3
3
3
3
3
3
3
3
3
3
3
3
3
3
3
3
3
3
3
3
3
3
3
3
3
3
3
3
3
3
3
3
3
3
3
3
3
3
3
3
3
3

CELL_DATA 61
SCALARS SegmentationId int
LOOKUP_TABLE default
60 59 58 57 56 55 54 53 52 
51 50 49 48 47 46 45 44 43 
42 41 0 1 2 3 4 5 6 
7 8 9 10 11 38 40 34 35 
28 13 37 29 14 25 17 39 16 
36 12 24 19 32 15 33 18 31 
21 30 20 23 22 27 26 
METADATA
INFORMATION 0

FIELD FieldData 4
upNodeId 1 61 int
0 2 4 6 7 8 10 12 14 
16 17 19 21 23 24 26 28 30 
32 33 36 38 38 41 43 45 47 
49 51 53 55 57 5 1 15 13 
29 41 9 27 47 58 45 3 36 
11 51 59 43 20 49 18 55 22 
53 25 57 61 60 31 34 
METADATA
INFORMATION 0

downNodeId 1 61 int
1 3 5 5 1 9 11 13 15 
15 18 20 22 13 25 27 29 31 
29 34 35 37 39 40 42 44 46 
48 50 52 54 56 9 58 59 27 
60 38 58 61 41 3 47 11 45 
59 36 20 51 18 43 22 49 25 
55 61 53 31 57 34 60 
METADATA
INFORMATION 0

RegionSize 1 61 int
102 36 10 4 16 11 22 116 4 
3 3 1 9 14 4 3 466 558 
65 76 6442 27086 24715 4 8 3 9 
2 14 4 0 0 5 47 2 0 
4 32207 1 43 75450 17 53673 193 107928 
930 115765 17 22721 14 9952 518 3753 417 
4041 381 26576 9599 117 12 33 
METADATA
INFORMATION 0

RegionSpan 1 61 double
0.140625 0.046875 0.044194173068 0.049410589039 0.069877125323 0.034938562661 0.056336738169 0.13441133499 0.046875 
0.046875 0.022097086534 0.015625 0.027063293383 0.056336738169 0.022097086534 0.03125 0.46875 0.066291257739 
0.25 0.1875 0.42071598768 0.7996276021 0.63372814655 0.049410589039 0.03125 0.015625 0.022097086534 
0.03125 0.066291257739 0.015625 0.015625 0.015625 0.076546557248 0.10364452749 0.09631896764 0.11048543453 
0.53537005186 0.98759394884 0.09631896764 0.058463398367 0.32287466526 0.16237975657 0.33438959718 0.079672180116 1.2537055016 
0.11481983215 1.2213513851 0.34728297591 0.14320549369 0.12693810463 0.36106938124 0.52431130409 0.038273278624 0.59580236673 
0.76114761829 0.14490029216 0.458481282 0.62460923195 0.64309734106 0.51986891031 0.56789940596 
METADATA
INFORMATION 0

POINT_DATA 62
FIELD FieldData 2
Scalar 1 62 float
0.590777 0.664057 0.575988 0.653306 0.581361 0.624607 0.616202 0.612713 0.578212 
0.605178 0.5482 0.583128 0.415395 0.537572 0.474489 0.501246 0.498195 0.467753 
0.491702 0.469188 0.490719 0.438658 0.468219 0.451253 0.418007 0.439834 0.415292 
0.438371 0.18965 0.27236 0.189728 0.272258 0.232422 0.189608 0.23203 0 
0.0499043 0.00064478 0.0283937 0.000882359 0.00761429 0.0341542 0.0153454 0.0568125 0.0158255 
0.0470008 0.0160679 0.0429574 0.0232364 0.0610759 0.0235148 0.0525391 0.0331045 0.0675315 
0.0365499 0.0637436 0.165032 0.188087 0.578204 0.47048 0.189232 0.40141 
METADATA
INFORMATION 0

ttkMaskScalarField 1 62 char
0 0 0 0 0 0 0 0 0 
0 0 0 0 0 0 0 0 0 
0 0 0 0 0 0 0 0 0 
0 0 0 0 0 0 0 0 0 
0 0 0 0 0 0 0 0 0 
0 0 0 0 0 0 0 0 0 
0 0 0 0 0 0 0 0 
METADATA
INFORMATION 0

