# vtk DataFile Version 4.2
vtk output
ASCII
DATASET UNSTRUCTURED_GRID
POINTS 46 float
0.46875 1.09375 0.71875 0.484375 1.125 0.703125 0.484375 1.07812 0.734375 
0.46875 1.125 0.75 0.484375 1.125 0.796875 0.484375 1.0625 0.640625 
0.484375 1.0625 0.609375 0.484375 0.9375 0.078125 0.484375 1 0 
0.46875 0.9375 0.9375 0.484375 0.9375 0.921875 0.46875 0.953125 0.546875 
0.484375 0.921875 0.546875 0.484375 0.921875 0.078125 0.46875 0.796875 0.953125 
0.484375 0.8125 0.96875 0.46875 0.796875 0.015625 0.453125 0.828125 0 
0.484375 0.8125 0.03125 0.484375 0.578125 0.71875 0.53125 0.53125 0.765625 
0.46875 0.578125 0.796875 0.421875 0.53125 0.71875 0.53125 0.53125 0.21875 
0.53125 0.53125 0.015625 0.421875 0.53125 0.1875 0.421875 0.53125 0 
0.46875 0.453125 0 0.390625 0.0625 0.234375 0.71875 1.03125 0.765625 
0.65625 1.03125 0.78125 0.265625 1.04688 0.890625 0.515625 1.15625 0.953125 
0.546875 0.84375 0.234375 0.5625 0.859375 0.28125 0.609375 1.04688 0.65625 
0.625 1.03125 0.71875 0.640625 1.03125 0.75 0.34375 1.01562 0.6875 
0.328125 0.984375 0.734375 0.59375 1.09375 0.875 0.59375 1.07812 0.859375 
0.40625 0.84375 0.25 0.390625 0.859375 0.234375 0.484375 0.859375 0.25 
0.46875 0.84375 0 
METADATA
INFORMATION 2
NAME L2_NORM_RANGE LOCATION vtkDataArray
DATA 2 0.459811 1.58469 
NAME L2_NORM_FINITE_RANGE LOCATION vtkDataArray
DATA 2 0.459811 1.58469 

CELLS 45 135
2 0 1 
2 0 2 
2 3 4 
2 5 6 
2 7 8 
2 9 10 
2 11 12 
2 7 13 
2 14 15 
2 16 17 
2 16 18 
2 19 20 
2 21 22 
2 23 24 
2 25 26 
2 27 28 
2 29 30 
2 31 32 
2 33 34 
2 35 36 
2 37 36 
2 38 39 
2 40 41 
2 42 43 
2 3 0 
2 44 7 
2 45 16 
2 36 30 
2 5 3 
2 30 32 
2 9 5 
2 32 39 
2 11 9 
2 39 41 
2 14 11 
2 41 28 
2 44 14 
2 28 34 
2 45 44 
2 34 43 
2 21 45 
2 43 23 
2 19 21 
2 23 25 
2 25 19 

CELL_TYPES 45
3
3
3
3
3
3
3
3
3
3
3
3
3
3
3
3
3
3
3
3
3
3
3
3
3
3
3
3
3
3
3
3
3
3
3
3
3
3
3
3
3
3
3
3
3

CELL_DATA 45
SCALARS SegmentationId int
LOOKUP_TABLE default
44 43 42 41 40 39 38 37 36 
35 34 33 32 31 30 0 1 2 
3 4 5 6 7 8 29 26 22 
13 28 10 27 11 25 14 24 15 
23 9 18 12 17 16 20 19 21 

METADATA
INFORMATION 0

FIELD FieldData 4
upNodeId 1 45 int
0 2 3 5 7 9 11 13 14 
16 18 19 21 23 25 28 30 32 
34 36 36 39 41 43 1 8 17 
30 4 32 6 39 10 41 12 28 
15 34 44 43 45 24 22 26 20 

METADATA
INFORMATION 0

downNodeId 1 45 int
1 1 4 6 8 10 12 8 15 
17 17 20 22 24 26 27 29 31 
33 35 37 38 40 42 4 44 45 
36 6 30 10 32 12 39 15 41 
44 28 45 34 22 43 20 24 26 

METADATA
INFORMATION 0

RegionSize 1 45 int
17 15 56 14 46 18 9 3 5 
18 3 451 567 74 74 6458 31876 48077 
14 15 18 38 1 12 49 119 3 
5 78 21362 1201 9667 99 78444 355 124329 
635 166179 959 4890 6934 20831 44 128 52 

METADATA
INFORMATION 0

RegionSpan 1 45 double
0.038273278624 0.027063293383 0.049410589039 0.03125 0.10004881769 0.022097086534 0.034938562661 0.015625 0.027063293383 
0.038273278624 0.027063293383 0.081189878285 0.10245997459 0.203125 0.1875 0.46219372749 0.064423523843 0.2799448967 
0.051822263747 0.066291257739 0.034938562661 0.058463398367 0.022097086534 0.027063293383 0.044194173068 0.18879759312 0.049410589039 
0.069877125323 0.12693810463 0.25483605266 0.32249635458 0.33548298478 0.39093738794 0.30817317963 0.43526214361 1.2097020149 
0.70607024431 0.81654644012 0.25097465515 0.17815241218 0.83998000622 0.35733115673 0.079672180116 0.11375171691 0.53696376085 

METADATA
INFORMATION 0

POINT_DATA 46
FIELD FieldData 2
Scalar 1 46 float
0.620119 0.671727 0.656808 0.586429 0.64356 0.567692 0.60284 0.435135 0.511608 
0.443379 0.472544 0.436933 0.460633 0.456889 0.415735 0.444572 0.360829 0.396177 
0.386704 0.189113 0.273098 0.189838 0.273038 0.186864 0.236667 0.188373 0.233767 
0 0.0499084 0.000562618 0.0325198 0.00176871 0.0387789 0.00599993 0.0652557 0.00624279 
0.0303441 0.00779838 0.0125307 0.040043 0.0226349 0.0466441 0.0252277 0.0711981 0.387235 
0.355449 
METADATA
INFORMATION 0

ttkMaskScalarField 1 46 char
0 0 0 0 0 0 0 0 0 
0 0 0 0 0 0 0 0 0 
0 0 0 0 0 0 0 0 0 
0 0 0 0 0 0 0 0 0 
0 0 0 0 0 0 0 0 0 
0 
METADATA
INFORMATION 0

