# vtk DataFile Version 4.2
vtk output
ASCII
DATASET UNSTRUCTURED_GRID
POINTS 62 float
0.484375 1.17188 0.75 0.484375 1.20312 0.765625 0.484375 1.21875 0.71875 
0.46875 1.1875 0.78125 0.46875 1.23438 0.828125 0.484375 1.17188 0.65625 
0.484375 1.17188 0.640625 0.46875 1.10938 0.546875 0.5 1.09375 0.53125 
0.46875 1.15625 0.625 0.453125 1.125 0.578125 0.5 1.14062 0.890625 
0.5 1.1875 0.890625 0.46875 1.09375 0.96875 0.4375 1.10938 0.96875 
0.484375 1.04688 0.625 0.484375 0.96875 0.609375 0.5 1.01562 0.921875 
0.484375 1.04688 0.5 0.46875 1.04688 0.484375 0.46875 0.90625 0.65625 
0.46875 0.875 0.65625 0.484375 0.984375 0.0625 0.453125 1.01562 0.015625 
0.5 0.96875 0.078125 0.46875 0.953125 0.390625 0.46875 0.9375 0.375 
0.46875 0.90625 0 0.484375 0.875 0 0.484375 0.84375 0.046875 
0.5 0.859375 0.046875 0.484375 0.578125 0.8125 0.53125 0.53125 0.734375 
0.46875 0.578125 0.796875 0.421875 0.53125 0.765625 0.546875 1.03125 0.984375 
0.546875 1.07812 0.984375 0.546875 1.09375 0.984375 0.53125 1.09375 0.984375 
0.421875 0.53125 0.265625 0.421875 0.53125 0 0.53125 0.53125 0.28125 
0.53125 0.53125 0 0.46875 0.453125 0 0.71875 0.09375 0.4375 
0.21875 1.09375 0.734375 0.53125 1.1875 0.5 0.703125 1.10938 0.875 
0.34375 1.15625 0.609375 0.328125 1.10938 0.640625 0.40625 1.1875 0.546875 
0.40625 1.1875 0.53125 0.375 1.07812 0.921875 0.359375 1.07812 0.921875 
0.40625 0.890625 0.203125 0.375 0.890625 0.203125 0.515625 1.09375 0.96875 
0.515625 1.09375 0.953125 0.5 1.07812 0 0.5 1.09375 0 
0.5 1.0625 0.90625 0.46875 0.890625 0.265625 
METADATA
INFORMATION 2
NAME L2_NORM_RANGE LOCATION vtkDataArray
DATA 2 0.651958 1.5782 
NAME L2_NORM_FINITE_RANGE LOCATION vtkDataArray
DATA 2 0.651958 1.5782 

CELLS 61 183
2 0 1 
2 0 2 
2 3 4 
2 5 6 
2 7 8 
2 9 10 
2 11 12 
2 13 14 
2 15 16 
2 13 17 
2 18 19 
2 20 21 
2 22 23 
2 22 24 
2 25 26 
2 27 28 
2 29 30 
2 31 32 
2 33 34 
2 35 36 
2 37 38 
2 39 40 
2 41 42 
2 43 44 
2 45 46 
2 47 46 
2 48 49 
2 50 51 
2 52 53 
2 54 55 
2 56 57 
2 58 59 
2 5 0 
2 60 13 
2 27 22 
2 46 49 
2 3 5 
2 61 27 
2 49 44 
2 11 3 
2 44 51 
2 9 11 
2 51 55 
2 7 9 
2 55 53 
2 15 7 
2 53 39 
2 18 15 
2 39 57 
2 60 18 
2 57 41 
2 20 60 
2 41 33 
2 25 20 
2 33 31 
2 61 25 
2 31 37 
2 29 61 
2 37 35 
2 59 29 
2 35 59 

CELL_TYPES 61
3
3
3
3
3
3
3
3
3
3
3
3
3
3
3
3
3
3
3
3
3
3
3
3
3
3
3
3
3
3
3
3
3
3
3
3
3
3
3
3
3
3
3
3
3
3
3
3
3
3
3
3
3
3
3
3
3
3
3
3
3

CELL_DATA 61
SCALARS SegmentationId int
LOOKUP_TABLE default
60 59 58 57 56 55 54 53 52 
51 50 49 48 47 46 45 44 43 
42 41 40 39 38 0 1 2 3 
4 5 6 7 8 37 31 27 10 
35 25 11 36 9 32 12 33 14 
34 13 30 17 29 15 20 23 28 
24 26 21 18 22 16 19 
METADATA
INFORMATION 0

FIELD FieldData 4
upNodeId 1 61 int
0 2 3 5 7 9 11 13 15 
17 18 20 22 24 25 27 29 31 
33 35 37 39 41 44 46 46 49 
51 53 55 57 59 1 14 23 49 
6 28 44 4 51 12 55 10 53 
8 40 16 57 19 42 60 34 21 
32 26 38 61 36 30 59 
METADATA
INFORMATION 0

downNodeId 1 61 int
1 1 4 6 8 10 12 14 16 
14 19 21 23 23 26 28 30 32 
34 36 38 40 42 43 45 47 48 
50 52 54 56 58 6 60 28 46 
4 61 49 12 44 10 51 8 55 
16 53 19 40 60 57 21 42 26 
34 61 32 30 38 59 36 
METADATA
INFORMATION 0

RegionSize 1 61 int
7 17 58 3 25 29 7 10 8 
11 6 5 24 6 5 13 2 469 
590 3 0 107 81 6767 28911 32253 5 
0 2 19 0 4 85 2 84 101753 
33 27 163734 182 117104 204 39452 64 220 
62 19606 36 87 56 154 202 19 853 
166 1040 2149 1277 853 4275 1000 
METADATA
INFORMATION 0

RegionSpan 1 61 double
0.034938562661 0.056336738169 0.066291257739 0.015625 0.038273278624 0.058463398367 0.046875 0.034938562661 0.079672180116 
0.09631896764 0.022097086534 0.03125 0.064423523843 0.027063293383 0.022097086534 0.034938562661 0.022097086534 0.10245997459 
0.0732877478 0.046875 0.015625 0.265625 0.28125 0.61891567707 0.4017175138 0.41984465718 0.058463398367 
0.015625 0.015625 0.03125 0.015625 0.015625 0.09375 0.076546557248 0.10126157105 0.25911131501 
0.12693810463 0.26608416438 1.1069515944 0.12303137034 1.1413738728 0.26791295409 0.44359591603 0.091108620167 0.74296832085 
0.10126157105 0.85652935505 0.125 0.89322537184 0.4068505168 0.87639397383 0.29646351933 0.521510005 0.26972931623 
0.022097086534 0.13975425065 0.54709815979 0.22426094115 0.0625 0.25483605266 0.98747032881 
METADATA
INFORMATION 0

POINT_DATA 62
FIELD FieldData 2
Scalar 1 62 float
0.648183 0.675684 0.67284 0.58746 0.654846 0.601826 0.62346 0.520031 0.588592 
0.52684 0.584722 0.554681 0.583163 0.508747 0.543359 0.513307 0.541177 0.53976 
0.510744 0.53669 0.491205 0.516616 0.444576 0.505698 0.474322 0.441561 0.469055 
0.401822 0.435479 0.356912 0.379244 0.188949 0.272343 0.186726 0.271665 0.246537 
0.269109 0.229269 0.252158 0.184189 0.233801 0.186557 0.233591 0 0.0499188 
0.000823347 0.0299858 0.00111729 0.0202324 0.0430145 0.0300352 0.053289 0.0513067 0.0759729 
0.0525848 0.0755674 0.162119 0.184884 0.21627 0.267594 0.505516 0.397073 
METADATA
INFORMATION 0

ttkMaskScalarField 1 62 char
0 0 0 0 0 0 0 0 0 
0 0 0 0 0 0 0 0 0 
0 0 0 0 0 0 0 0 0 
0 0 0 0 0 0 0 0 0 
0 0 0 0 0 0 0 0 0 
0 0 0 0 0 0 0 0 0 
0 0 0 0 0 0 0 0 
METADATA
INFORMATION 0

