# vtk DataFile Version 4.2
vtk output
ASCII
DATASET UNSTRUCTURED_GRID
POINTS 60 float
0.46875 1.1875 0.796875 0.46875 1.23438 0.8125 0.46875 1.3125 0.75 
0.515625 1.26562 0.6875 0.515625 1.25 0.65625 0.46875 1.39062 0.703125 
0.453125 1.39062 0.6875 0.484375 1.15625 0.703125 0.484375 1.125 0.703125 
0.515625 1.25 0.921875 0.5 1.15625 0.953125 0.5 1.28125 0.6875 
0.5 1.29688 0.6875 0.5 1.14062 0.515625 0.484375 1.1875 0.5625 
0.484375 1.125 0.5 0.46875 1.0625 0.0625 0.5 1.125 0 
0.484375 0.96875 0.640625 0.484375 0.9375 0.625 0.46875 1.03125 0.078125 
0.46875 0.875 0.59375 0.46875 0.890625 0.578125 0.484375 0.875 0.90625 
0.484375 0.9375 0.90625 0.421875 1.26562 0.71875 0.40625 1.29688 0.734375 
0.484375 0.953125 0.9375 0.46875 0.96875 0.953125 0.484375 1.01562 0 
0.46875 0.96875 0 0.484375 0.90625 0.390625 0.46875 0.875 0.4375 
0.484375 0.578125 0.78125 0.53125 0.53125 0.71875 0.46875 0.578125 0.734375 
0.421875 0.53125 0.734375 0.53125 0.53125 0.25 0.53125 0.53125 0 
0.421875 0.53125 0.203125 0.421875 0.53125 0 0.46875 0.453125 0 
0.59375 0.109375 0.140625 0.75 1.14062 0.75 0.359375 0.96875 0.484375 
0.421875 1.32812 0.5625 0.359375 1.3125 0.546875 0.40625 0.96875 0.515625 
0.625 1.15625 0.921875 0.640625 1.15625 0.890625 0.5625 0.921875 0.25 
0.59375 0.9375 0.234375 0.390625 0.9375 0.25 0.359375 0.9375 0.265625 
0.53125 1.25 0.875 0.546875 1.25 0.859375 0.4375 1.125 0 
0.421875 1.125 0 0.484375 1.20312 0.625 0.46875 0.921875 0.203125 

METADATA
INFORMATION 2
NAME L2_NORM_RANGE LOCATION vtkDataArray
DATA 2 0.619901 1.63653 
NAME L2_NORM_FINITE_RANGE LOCATION vtkDataArray
DATA 2 0.619901 1.63653 

CELLS 59 177
2 0 1 
2 0 2 
2 3 4 
2 5 6 
2 7 8 
2 9 10 
2 11 12 
2 13 14 
2 13 15 
2 16 17 
2 18 19 
2 16 20 
2 21 22 
2 23 24 
2 25 26 
2 27 28 
2 29 30 
2 31 32 
2 33 34 
2 35 36 
2 37 38 
2 39 40 
2 41 42 
2 43 44 
2 45 46 
2 47 44 
2 48 49 
2 50 51 
2 52 53 
2 54 55 
2 56 57 
2 3 0 
2 58 13 
2 29 16 
2 44 46 
2 11 3 
2 59 29 
2 46 49 
2 7 11 
2 49 42 
2 5 7 
2 42 51 
2 9 5 
2 51 53 
2 58 9 
2 53 55 
2 18 58 
2 55 39 
2 21 18 
2 39 37 
2 23 21 
2 37 35 
2 25 23 
2 35 33 
2 27 25 
2 33 57 
2 59 27 
2 57 31 
2 31 59 

CELL_TYPES 59
3
3
3
3
3
3
3
3
3
3
3
3
3
3
3
3
3
3
3
3
3
3
3
3
3
3
3
3
3
3
3
3
3
3
3
3
3
3
3
3
3
3
3
3
3
3
3
3
3
3
3
3
3
3
3
3
3
3
3

CELL_DATA 59
SCALARS SegmentationId int
LOOKUP_TABLE default
58 57 56 55 54 53 52 51 50 
49 48 47 46 45 44 43 42 41 
40 39 38 37 0 1 2 3 4 
5 6 7 8 36 30 29 10 35 
23 11 31 12 33 9 34 13 32 
14 19 15 28 20 27 21 26 22 
25 18 24 16 17 
METADATA
INFORMATION 0

FIELD FieldData 4
upNodeId 1 59 int
0 2 3 5 7 9 11 13 15 
16 18 20 21 23 25 27 29 31 
33 35 37 39 42 44 46 44 49 
51 53 55 57 1 14 17 46 4 
30 49 12 42 8 51 6 53 10 
55 58 40 19 38 22 36 24 34 
26 57 28 32 59 
METADATA
INFORMATION 0

downNodeId 1 59 int
1 1 4 6 8 10 12 14 14 
17 19 17 22 24 26 28 30 32 
34 36 38 40 41 43 45 47 48 
50 52 54 56 4 58 30 44 12 
59 46 8 49 6 42 10 51 58 
53 19 55 22 40 24 38 26 36 
28 34 59 57 32 
METADATA
INFORMATION 0

RegionSize 1 59 int
31 70 20 7 13 36 1 20 5 
13 18 7 3 8 9 12 12 16 
461 555 66 86 6723 115839 60 32 5 
13 11 4 1 94 29 124 101700 94 
72 18290 3 93545 24 145493 265 2736 122 
16206 407 6977 247 180 34 77 212 1 
347 4464 1379 6642 307 
METADATA
INFORMATION 0

RegionSpan 1 59 double
0.049410589039 0.13350005448 0.034938562661 0.022097086534 0.03125 0.10004881769 0.015625 0.068107798696 0.027063293383 
0.09375 0.034938562661 0.034938562661 0.022097086534 0.0625 0.038273278624 0.027063293383 0.049410589039 0.058463398367 
0.091108620167 0.066291257739 0.25 0.203125 0.39187300205 0.50267839432 0.066291257739 0.056336738169 0.034938562661 
0.038273278624 0.034938562661 0.022097086534 0.015625 0.14235052466 0.12693810463 0.079672180116 0.34938561916 0.022097086534 
0.22426094115 0.47082871199 0.12693810463 1.2886599302 0.23489525914 0.83341473341 0.26424273849 0.23644915223 0.30217310786 
0.69667178392 0.23489525914 0.98126989603 0.10597390682 0.11899645627 0.31289038062 0.49063494802 0.43777891994 0.049410589039 
0.38654115796 0.95568305254 0.73520565033 0.45204612613 0.18879759312 
METADATA
INFORMATION 0

POINT_DATA 60
FIELD FieldData 2
Scalar 1 60 float
0.613177 0.695732 0.659577 0.585783 0.618244 0.563544 0.60262 0.567621 0.601403 
0.534204 0.599677 0.568226 0.597032 0.551327 0.583829 0.57346 0.493104 0.547 
0.497102 0.536119 0.523159 0.481333 0.511274 0.479718 0.504065 0.46697 0.492141 
0.4499 0.489345 0.414856 0.469194 0.390036 0.41828 0.190012 0.272527 0.190004 
0.272373 0.18922 0.232182 0.187274 0.23193 0 0.0499071 0.0005575 0.0367823 
0.00952045 0.0458711 0.0135213 0.0253325 0.0470548 0.041378 0.069837 0.0457234 0.0734968 
0.104599 0.129931 0.223552 0.258012 0.524708 0.399243 
METADATA
INFORMATION 0

ttkMaskScalarField 1 60 char
0 0 0 0 0 0 0 0 0 
0 0 0 0 0 0 0 0 0 
0 0 0 0 0 0 0 0 0 
0 0 0 0 0 0 0 0 0 
0 0 0 0 0 0 0 0 0 
0 0 0 0 0 0 0 0 0 
0 0 0 0 0 0 
METADATA
INFORMATION 0

