# vtk DataFile Version 4.2
vtk output
ASCII
DATASET UNSTRUCTURED_GRID
POINTS 111 float
0.515625 1.39062 0.75 0.5 1.3125 0.75 0.484375 1.32812 0.84375 
0.484375 1.26562 0.8125 0.5 1.39062 0.734375 0.484375 1.21875 0.734375 
0.484375 1.17188 0.734375 0.46875 1.10938 0.640625 0.484375 1.3125 0.640625 
0.46875 1.32812 0.875 0.484375 1.17188 0.75 0.484375 1.125 0.765625 
0.5 1.48438 0.703125 0.5 1.53125 0.671875 0.453125 1.375 0.734375 
0.4375 1.375 0.734375 0.46875 1.32812 0.796875 0.46875 1.35938 0.78125 
0.46875 1.07812 0.671875 0.484375 0.90625 0.796875 0.484375 0.9375 0.8125 
0.46875 1.20312 0.890625 0.46875 1.15625 0.890625 0.484375 1.01562 0.71875 
0.484375 0.953125 0.71875 0.453125 1.10938 0.46875 0.453125 1.1875 0.53125 
0.484375 0.9375 0.640625 0.46875 0.921875 0.625 0.421875 1.15625 0.703125 
0.421875 1.17188 0.703125 0.5 1.10938 0.046875 0.46875 1.09375 0.046875 
0.484375 1.07812 0.421875 0.46875 0.9375 0.84375 0.46875 0.921875 0.859375 
0.5 1.17188 0 0.46875 1.01562 0.546875 0.46875 0.96875 0.53125 
0.484375 1.23438 0.9375 0.484375 1.17188 0.984375 0.46875 1.04688 0.390625 
0.46875 1.03125 0.375 0.484375 1.03125 0.953125 0.484375 1 0.984375 
0.40625 1.34375 0.78125 0.390625 1.375 0.796875 0.46875 1.04688 0.078125 
0.484375 1.03125 0.109375 0.484375 1.03125 0.9375 0.484375 1.0625 0.953125 
0.46875 1.0625 0.9375 0.46875 1.07812 0.9375 0.515625 1.5 0.765625 
0.515625 1.51562 0.765625 0.484375 1.01562 0.46875 0.484375 0.921875 0.484375 
0.515625 1.26562 0.5625 0.515625 1.25 0.5625 0.484375 1.03125 0.984375 
0.5 1.03125 0.984375 0.46875 0.578125 0.734375 0.421875 0.53125 0.734375 
0.484375 0.578125 0.75 0.53125 0.53125 0.75 0.421875 0.53125 0.21875 
0.421875 0.53125 0 0.53125 0.53125 0.234375 0.53125 0.53125 0 
0.421875 1.1875 0.984375 0.40625 1.17188 0.984375 0.421875 1.20312 0.984375 
0.53125 1.96875 0.21875 0.484375 1.51562 0 0.46875 0.453125 0 
0.375 0.0625 0.5 0.734375 1.25 0.640625 0.296875 1.29688 0.8125 
0.34375 1.29688 0.828125 0.453125 1.34375 0.984375 0.421875 1.34375 0.984375 
0.546875 0.984375 0.921875 0.578125 1.01562 0.96875 0.328125 1.14062 0.796875 
0.296875 1.17188 0.78125 0.59375 1.10938 0.640625 0.609375 1.10938 0.625 
0.53125 1.15625 0.515625 0.546875 1.14062 0.53125 0.578125 0.96875 0.25 
0.59375 0.96875 0.25 0.390625 0.96875 0.25 0.359375 0.984375 0.21875 
0.546875 1.15625 0.546875 0.4375 1.26562 0.609375 0.421875 1.25 0.609375 
0.4375 1.20312 0.96875 0.4375 1.20312 0.984375 0.5625 1.21875 0.8125 
0.578125 1.20312 0.84375 0.4375 1.15625 0 0.40625 1.1875 0 
0.53125 1.3125 0.875 0.515625 1.34375 0.890625 0.421875 1.28125 0.84375 
0.421875 1.26562 0.84375 0.4375 1.14062 0.671875 0.5625 1.09375 0.5625 
0.453125 1.35938 0.75 0.5 1.15625 0.5625 0.46875 0.96875 0.25 

METADATA
INFORMATION 2
NAME L2_NORM_RANGE LOCATION vtkDataArray
DATA 2 0.628117 2.05087 
NAME L2_NORM_FINITE_RANGE LOCATION vtkDataArray
DATA 2 0.628117 2.05087 

CELLS 110 330
2 0 1 
2 2 3 
2 0 4 
2 5 6 
2 7 8 
2 2 9 
2 10 11 
2 12 13 
2 14 15 
2 16 17 
2 7 18 
2 19 20 
2 21 22 
2 23 24 
2 25 26 
2 27 28 
2 29 30 
2 31 32 
2 25 33 
2 34 35 
2 31 36 
2 37 38 
2 39 40 
2 41 42 
2 43 44 
2 45 46 
2 47 48 
2 49 50 
2 51 52 
2 53 54 
2 55 56 
2 57 58 
2 59 60 
2 61 62 
2 63 64 
2 65 66 
2 67 68 
2 69 70 
2 69 71 
2 72 73 
2 74 75 
2 76 77 
2 78 77 
2 79 80 
2 81 82 
2 83 84 
2 85 86 
2 87 88 
2 89 90 
2 91 92 
2 93 88 
2 94 95 
2 96 97 
2 98 99 
2 100 101 
2 102 103 
2 104 105 
2 5 0 
2 16 2 
2 106 7 
2 37 25 
2 47 31 
2 77 82 
2 88 107 
2 10 5 
2 108 16 
2 109 37 
2 110 47 
2 82 86 
2 12 10 
2 86 84 
2 14 12 
2 84 72 
2 108 14 
2 72 75 
2 106 108 
2 75 80 
2 21 106 
2 80 90 
2 23 21 
2 90 92 
2 19 23 
2 92 107 
2 29 19 
2 107 67 
2 27 29 
2 67 97 
2 34 27 
2 97 65 
2 109 34 
2 65 61 
2 41 109 
2 61 63 
2 49 41 
2 63 95 
2 45 49 
2 95 99 
2 43 45 
2 99 69 
2 51 43 
2 69 103 
2 55 51 
2 103 101 
2 53 55 
2 101 105 
2 39 53 
2 105 59 
2 57 39 
2 59 110 
2 110 57 

CELL_TYPES 110
3
3
3
3
3
3
3
3
3
3
3
3
3
3
3
3
3
3
3
3
3
3
3
3
3
3
3
3
3
3
3
3
3
3
3
3
3
3
3
3
3
3
3
3
3
3
3
3
3
3
3
3
3
3
3
3
3
3
3
3
3
3
3
3
3
3
3
3
3
3
3
3
3
3
3
3
3
3
3
3
3
3
3
3
3
3
3
3
3
3
3
3
3
3
3
3
3
3
3
3
3
3
3
3
3
3
3
3
3
3

CELL_DATA 110
SCALARS SegmentationId int
LOOKUP_TABLE default
109 108 107 106 105 104 103 102 101 
100 99 98 97 96 95 94 93 92 
91 90 89 88 87 86 85 84 83 
82 81 80 79 78 77 76 75 74 
73 72 71 70 0 1 2 3 4 
5 6 7 8 9 10 11 12 13 
14 15 16 69 68 66 58 55 18 
23 67 62 53 48 20 65 22 64 
21 63 32 38 17 39 19 60 24 
59 25 61 40 56 36 57 27 54 
42 37 41 51 35 47 26 49 28 
50 33 46 30 44 29 45 31 52 
34 43 
METADATA
INFORMATION 0

FIELD FieldData 4
upNodeId 1 110 int
0 2 4 5 7 9 10 12 14 
16 18 19 21 23 25 27 29 31 
33 34 36 37 39 41 43 45 47 
49 51 53 55 57 59 61 63 65 
67 69 71 72 75 77 77 80 82 
84 86 88 90 92 88 95 97 99 
101 103 105 1 3 8 26 32 82 
107 6 17 38 48 86 11 84 13 
73 15 75 108 80 106 90 22 92 
24 107 20 68 30 97 28 66 35 
62 109 64 42 95 50 99 46 70 
44 103 52 101 56 105 54 60 40 
110 58 
METADATA
INFORMATION 0

downNodeId 1 110 int
1 3 1 6 8 3 11 13 15 
17 8 20 22 24 26 28 30 32 
26 35 32 38 40 42 44 46 48 
50 52 54 56 58 60 62 64 66 
68 70 70 73 74 76 78 79 81 
83 85 87 89 91 93 94 96 98 
100 102 104 6 17 106 38 48 77 
88 11 108 109 110 82 13 86 15 
84 108 73 106 75 22 80 24 90 
20 92 30 107 28 68 35 97 109 
66 42 62 50 64 46 95 44 99 
52 70 56 103 54 101 40 105 58 
60 110 
METADATA
INFORMATION 0

RegionSize 1 110 int
19 15 5 4 99 14 14 4 7 
5 6 12 3 11 39 14 3 39 
17 5 36 15 43 8 20 10 38 
4 0 10 11 0 0 562 452 77 
73 5 0 5523 6837 96136 15 5 20 
17 5 8 9 8 1 2 0 4 
20 14 4 7 84 51 27 4 14877 
11 37 21 32 122 27669 22 52250 27 
129614 58 12325 112 93890 12 43911 83 7207 
127 3706 77 11236 98 11 3 5 845 
21 9 78 69 65 34 434 178 109 
281 2561 109 1223 188 1637 119 7272 48 
219 635 
METADATA
INFORMATION 0

RegionSpan 1 110 double
0.079672180116 0.069877125323 0.022097086534 0.046875 0.20372506976 0.034938562661 0.049410589039 0.056336738169 0.015625 
0.034938562661 0.044194173068 0.034938562661 0.046875 0.0625 0.10004881769 0.027063293383 0.015625 0.034938562661 
0.064423523843 0.022097086534 0.078125 0.049410589039 0.078125 0.022097086534 0.044194173068 0.038273278624 0.038273278624 
0.034938562661 0.015625 0.015625 0.095043167472 0.015625 0.015625 0.066291257739 0.066291257739 0.21875 
0.234375 0.022097086534 0.015625 0.50534254313 0.64138674736 0.47238177061 0.049410589039 0.03125 0.064423523843 
0.046875 0.022097086534 0.027063293383 0.015625 0.046875 0.022097086534 0.022097086534 0.015625 0.038273278624 
0.044194173068 0.038273278624 0.015625 0.17539018393 0.049410589039 0.054126586765 0.12303137034 0.076546557248 0.42733731866 
0.058463398367 0.049410589039 0.058463398367 0.14490029216 0.18879759312 0.35767260194 0.31638213992 0.35493177176 0.12303137034 
1.0031688213 0.022097086534 1.933210969 0.23280726373 1.3705538511 0.22963966429 0.84230202436 0.25483605266 0.23696485162 
0.13441133499 0.41398879886 0.27421763539 0.65195769072 0.23593232036 1.0112887621 0.20372506976 1.0187451839 0.35767260194 
0.51986891031 0.20610789955 0.022097086534 0.54732125998 0.68927329779 0.35801371932 0.28555729985 0.36510378122 0.21079277992 
0.038273278624 0.20491994917 0.47134697437 0.91081821918 0.56897318363 0.84750324488 0.3179217279 0.28038060665 0.37759518623 
0.73719537258 0.43357616663 
METADATA
INFORMATION 0

POINT_DATA 111
FIELD FieldData 2
Scalar 1 111 float
0.633176 0.682393 0.606498 0.666618 0.661215 0.623405 0.648167 0.551573 0.645079 
0.644759 0.591166 0.639342 0.580637 0.618309 0.567986 0.597736 0.559642 0.585466 
0.579168 0.517613 0.565141 0.534747 0.563599 0.527177 0.561112 0.483594 0.550511 
0.504683 0.545833 0.51176 0.540045 0.43052 0.537617 0.532366 0.504588 0.531781 
0.52728 0.47437 0.508277 0.426577 0.503765 0.462958 0.501293 0.452677 0.495602 
0.459261 0.491183 0.428368 0.482773 0.46029 0.482474 0.44212 0.471705 0.43103 
0.470186 0.437457 0.468424 0.424773 0.447715 0.400219 0.42953 0.189442 0.272693 
0.190373 0.272496 0.189176 0.23971 0.188965 0.233128 0.199287 0.224943 0.224217 
0.049687 0.0718405 0 0.0498993 0.000607389 0.0315446 0.00633541 0.00760867 0.0535543 
0.00899681 0.0338855 0.0150117 0.0421731 0.0151227 0.037577 0.0395291 0.0940239 0.0523503 
0.0793239 0.0642356 0.0989807 0.0694872 0.16438 0.191466 0.165559 0.189118 0.165687 
0.197622 0.169599 0.252699 0.202348 0.235645 0.246585 0.27472 0.536429 0.113334 
0.552014 0.463764 0.405474 
METADATA
INFORMATION 0

ttkMaskScalarField 1 111 char
0 0 0 0 0 0 0 0 0 
0 0 0 0 0 0 0 0 0 
0 0 0 0 0 0 0 0 0 
0 0 0 0 0 0 0 0 0 
0 0 0 0 0 0 0 0 0 
0 0 0 0 0 0 0 0 0 
0 0 0 0 0 0 0 0 0 
0 0 0 0 0 0 0 0 0 
0 0 0 0 0 0 0 0 0 
0 0 0 0 0 0 0 0 0 
0 0 0 0 0 0 0 0 0 
0 0 0 0 0 0 0 0 0 
0 0 0 
METADATA
INFORMATION 0

