# vtk DataFile Version 4.2
vtk output
ASCII
DATASET UNSTRUCTURED_GRID
POINTS 87 float
0.5 1.32812 0.734375 0.4375 1.3125 0.703125 0.484375 1.3125 0.765625 
0.46875 1.29688 0.78125 0.453125 1.21875 0.828125 0.484375 1.32812 0.875 
0.515625 1.42188 0.765625 0.453125 1.34375 0.59375 0.46875 1.25 0.5625 
0.453125 1.25 0.796875 0.453125 1.1875 0.8125 0.453125 1.14062 0.78125 
0.453125 1.125 0.765625 0.46875 1.04688 0.765625 0.46875 1 0.75 
0.4375 1.375 0.59375 0.46875 1.01562 0.953125 0.453125 1.17188 0.96875 
0.5 1.20312 0.671875 0.5 1.125 0.65625 0.46875 0.984375 0.765625 
0.46875 0.953125 0.796875 0.5 1.07812 0.640625 0.484375 1.04688 0.640625 
0.515625 1.125 0.453125 0.46875 1.09375 0.4375 0.46875 0.9375 0.734375 
0.46875 0.96875 0.6875 0.484375 1.04688 0.0625 0.453125 1.15625 0 
0.484375 1.04688 0.53125 0.46875 1.01562 0.53125 0.484375 1.09375 0.890625 
0.5 1.09375 0.890625 0.46875 1.03125 0.40625 0.484375 1.01562 0.375 
0.46875 0.953125 0.96875 0.5 1.03125 0.09375 0.484375 1.01562 0.109375 
0.46875 1.01562 0.109375 0.484375 0.921875 0.5 0.46875 0.9375 0.484375 
0.46875 1.03125 0 0.484375 1.01562 0 0.484375 0.96875 0.203125 
0.484375 0.96875 0.21875 0.46875 0.96875 0.4375 0.484375 0.953125 0.4375 
0.46875 1 0.15625 0.484375 0.96875 0.171875 0.484375 0.984375 0.03125 
0.484375 0.921875 0.046875 0.484375 0.578125 0.75 0.53125 0.53125 0.75 
0.46875 0.578125 0.765625 0.421875 0.53125 0.71875 0.59375 1.23438 0.578125 
0.578125 1.1875 0.59375 0.421875 0.53125 0.1875 0.421875 0.53125 0.015625 
0.53125 0.53125 0.21875 0.53125 0.53125 0 0.375 1.95312 0.203125 
0.515625 1.35938 0 0.46875 0.453125 0 0.34375 0.078125 0.140625 
0.203125 1.20312 0.828125 0.515625 1.35938 0.5 0.71875 1.1875 0.859375 
0.640625 1.10938 0.703125 0.640625 1.10938 0.71875 0.390625 0.953125 0.21875 
0.359375 0.96875 0.234375 0.5625 0.953125 0.25 0.59375 0.96875 0.265625 
0.359375 1.15625 0.921875 0.34375 1.17188 0.890625 0.515625 1.17188 0.984375 
0.515625 1.17188 0.96875 0.515625 1.1875 0.96875 0.515625 1.14062 0 
0.515625 1.20312 0 0.390625 1.26562 0.78125 0.375 1.28125 0.78125 
0.46875 1.39062 0.640625 0.484375 0.8125 0.9375 0.484375 0.96875 0.234375 

METADATA
INFORMATION 2
NAME L2_NORM_RANGE LOCATION vtkDataArray
DATA 2 0.37953 1.99915 
NAME L2_NORM_FINITE_RANGE LOCATION vtkDataArray
DATA 2 0.37953 1.99915 

CELLS 86 258
2 0 1 
2 2 3 
2 4 5 
2 2 6 
2 7 8 
2 9 10 
2 11 12 
2 13 14 
2 7 15 
2 16 17 
2 18 19 
2 20 21 
2 22 23 
2 24 25 
2 26 27 
2 28 29 
2 30 31 
2 32 33 
2 34 35 
2 16 36 
2 28 37 
2 38 39 
2 40 41 
2 42 43 
2 44 45 
2 46 47 
2 48 49 
2 50 51 
2 52 53 
2 54 55 
2 56 57 
2 58 59 
2 60 61 
2 62 63 
2 64 65 
2 66 67 
2 68 67 
2 69 70 
2 71 72 
2 73 74 
2 75 76 
2 77 78 
2 79 78 
2 80 81 
2 82 83 
2 9 2 
2 84 7 
2 85 16 
2 42 28 
2 67 70 
2 11 9 
2 38 42 
2 70 62 
2 4 11 
2 48 38 
2 62 65 
2 0 4 
2 44 48 
2 65 76 
2 18 0 
2 86 44 
2 76 72 
2 13 18 
2 72 74 
2 84 13 
2 74 78 
2 20 84 
2 78 60 
2 26 20 
2 60 58 
2 22 26 
2 58 52 
2 32 22 
2 52 54 
2 30 32 
2 54 56 
2 24 30 
2 56 83 
2 40 24 
2 83 81 
2 85 40 
2 81 50 
2 34 85 
2 50 46 
2 86 34 
2 46 86 

CELL_TYPES 86
3
3
3
3
3
3
3
3
3
3
3
3
3
3
3
3
3
3
3
3
3
3
3
3
3
3
3
3
3
3
3
3
3
3
3
3
3
3
3
3
3
3
3
3
3
3
3
3
3
3
3
3
3
3
3
3
3
3
3
3
3
3
3
3
3
3
3
3
3
3
3
3
3
3
3
3
3
3
3
3
3
3
3
3
3
3

CELL_DATA 86
SCALARS SegmentationId int
LOOKUP_TABLE default
85 84 83 82 81 80 79 78 77 
76 75 74 73 72 71 70 69 68 
67 66 65 64 63 62 61 60 59 
58 57 56 55 54 53 52 0 1 
2 3 4 5 6 7 8 9 10 
50 48 44 38 12 47 32 13 46 
34 20 49 29 11 51 31 16 43 
14 45 15 24 17 42 25 39 28 
41 27 36 26 37 21 40 19 33 
18 23 30 35 22 
METADATA
INFORMATION 0

FIELD FieldData 4
upNodeId 1 86 int
0 2 4 6 7 9 11 13 15 
16 18 20 22 24 26 28 30 32 
34 36 37 38 40 42 44 46 48 
50 52 54 56 58 60 62 65 67 
67 70 72 74 76 78 78 81 83 
3 8 17 29 70 10 43 63 12 
39 65 5 49 76 1 45 72 19 
74 14 78 84 61 21 59 27 53 
23 55 33 57 31 83 25 81 41 
51 85 47 35 86 
METADATA
INFORMATION 0

downNodeId 1 86 int
1 3 5 3 8 10 12 14 8 
17 19 21 23 25 27 29 31 33 
35 17 29 39 41 43 45 47 49 
51 53 55 57 59 61 63 64 66 
68 69 71 73 75 77 79 80 82 
10 84 85 43 67 12 39 70 5 
49 63 1 45 65 19 86 76 14 
72 84 74 21 78 27 61 23 59 
33 53 31 55 25 57 41 83 85 
81 35 51 86 47 
METADATA
INFORMATION 0

RegionSize 1 86 int
122 8 59 10 47 16 4 7 10 
69 12 14 28 36 20 30 7 0 
24 11 7 14 4 4 4 6 5 
11 462 532 11 75 78 5264 6758 28271 
32450 0 17 28 3 0 0 28 1 
22 36 33 23 109610 30 3 149774 14 
46 12561 24 10 135176 103 14 6068 1 
2631 43 11620 164 5287 25 502 24 78 
872 108 297 1996 326 1121 218 1263 1 
8441 230 97 727 15 
METADATA
INFORMATION 0

RegionSpan 1 86 double
0.071602746844 0.027063293383 0.12303137034 0.11375171691 0.10004881769 0.064423523843 0.022097086534 0.049410589039 0.034938562661 
0.15780475736 0.079672180116 0.044194173068 0.034938562661 0.058463398367 0.056336738169 0.12979099154 0.034938562661 0.015625 
0.038273278624 0.064423523843 0.038273278624 0.015625 0.027063293383 0.022097086534 0.015625 0.022097086534 0.038273278624 
0.064423523843 0.066291257739 0.081189878285 0.051822263747 0.171875 0.21875 0.64309734106 0.41955378652 0.47930818796 
0.44715899229 0.015625 0.038273278624 0.038273278624 0.038273278624 0.015625 0.015625 0.0625 0.022097086534 
0.076546557248 0.068107798696 0.20432338119 0.066291257739 0.35493177176 0.11048543453 0.11158481985 1.023884654 0.091108620167 
0.051822263747 1.8763016462 0.15149000287 0.058463398367 1.3261934519 0.13975425065 0.03125 0.68714481592 0.18487749994 
0.23644915223 0.36577185988 0.73603534698 0.4250459671 0.9864808917 0.056336738169 0.11375171691 0.171875 0.56789940596 
0.25097465515 0.022097086534 0.36241915822 0.69386261702 0.11481983215 0.30217310786 0.21079277992 0.79764056206 0.45096468925 
0.22316963971 0.57473671436 0.4068505168 0.18355219066 0.20372506976 
METADATA
INFORMATION 0

POINT_DATA 87
FIELD FieldData 2
Scalar 1 87 float
0.557937 0.674135 0.612677 0.654664 0.563988 0.645866 0.634862 0.557465 0.61719 
0.582469 0.617126 0.56759 0.599496 0.547029 0.585275 0.582737 0.458892 0.578989 
0.547121 0.577447 0.531763 0.567029 0.528286 0.566852 0.454867 0.558996 0.529828 
0.555931 0.452585 0.522985 0.469598 0.519371 0.483598 0.505374 0.436065 0.497255 
0.487971 0.487305 0.435303 0.474085 0.444945 0.473487 0.436824 0.463761 0.413877 
0.443192 0.409704 0.442484 0.417341 0.442291 0.406953 0.441932 0.189783 0.273091 
0.190849 0.272317 0.218714 0.250642 0.188977 0.236245 0.184352 0.234303 0.0497223 
0.0822564 0 0.0499091 0.000604788 0.025692 0.000830003 0.0151551 0.0410655 0.0441736 
0.0825935 0.0492374 0.0897769 0.0498347 0.0718456 0.10903 0.143578 0.109394 0.127581 
0.25263 0.212538 0.234527 0.542519 0.444759 0.410326 
METADATA
INFORMATION 0

ttkMaskScalarField 1 87 char
0 0 0 0 0 0 0 0 0 
0 0 0 0 0 0 0 0 0 
0 0 0 0 0 0 0 0 0 
0 0 0 0 0 0 0 0 0 
0 0 0 0 0 0 0 0 0 
0 0 0 0 0 0 0 0 0 
0 0 0 0 0 0 0 0 0 
0 0 0 0 0 0 0 0 0 
0 0 0 0 0 0 0 0 0 
0 0 0 0 0 0 
METADATA
INFORMATION 0

