# vtk DataFile Version 4.2
vtk output
ASCII
DATASET UNSTRUCTURED_GRID
POINTS 58 float
0.453125 1.21875 0.640625 0.46875 1.21875 0.765625 0.46875 1.17188 0.828125 
0.453125 1.21875 0.890625 0.453125 1.21875 0.625 0.46875 1 0.8125 
0.46875 1.04688 0.796875 0.453125 1.125 0.890625 0.484375 1.07812 0.953125 
0.484375 1.07812 0.828125 0.484375 1.03125 0.828125 0.5 1.20312 0.578125 
0.5 1.15625 0.5625 0.484375 0.96875 0.109375 0.453125 1 0.0625 
0.46875 1 0.40625 0.484375 0.96875 0.390625 0.484375 0.875 0.546875 
0.484375 0.84375 0.546875 0.484375 0.953125 0.125 0.484375 0.9375 0.359375 
0.46875 0.9375 0.34375 0.46875 0.953125 0.015625 0.46875 0.90625 0 
0.515625 1.25 0.890625 0.515625 1.23438 0.890625 0.46875 0.578125 0.734375 
0.421875 0.53125 0.734375 0.484375 0.578125 0.75 0.53125 0.53125 0.734375 
0.421875 0.53125 0.265625 0.421875 0.53125 0 0.53125 0.53125 0.234375 
0.53125 0.53125 0 0.46875 0.453125 0 0.6875 0.0625 0.28125 
0.734375 1.10938 0.765625 0.328125 1.1875 0.859375 0.359375 1.17188 0.859375 
0.4375 1.25 0.546875 0.421875 1.25 0.546875 0.40625 1.23438 0.5625 
0.390625 1.23438 0.5625 0.578125 1.17188 0.546875 0.59375 1.17188 0.546875 
0.59375 1.125 0.90625 0.625 1.125 0.9375 0.59375 1.15625 0.5625 
0.609375 1.15625 0.546875 0.5625 0.90625 0.234375 0.578125 0.90625 0.234375 
0.375 1.0625 0.546875 0.359375 1.0625 0.546875 0.390625 0.90625 0.265625 
0.375 0.90625 0.265625 0.40625 1.14062 0.796875 0.390625 1.15625 0.796875 
0.484375 0.921875 0.3125 
METADATA
INFORMATION 2
NAME L2_NORM_RANGE LOCATION vtkDataArray
DATA 2 0.651958 1.61913 
NAME L2_NORM_FINITE_RANGE LOCATION vtkDataArray
DATA 2 0.651958 1.61913 

CELLS 57 171
2 0 1 
2 2 3 
2 0 4 
2 5 6 
2 7 8 
2 9 10 
2 11 12 
2 13 14 
2 15 16 
2 17 18 
2 13 19 
2 20 21 
2 22 23 
2 24 25 
2 26 27 
2 28 29 
2 30 31 
2 32 33 
2 34 35 
2 36 37 
2 38 37 
2 39 40 
2 41 42 
2 43 44 
2 45 46 
2 47 48 
2 49 50 
2 51 52 
2 53 54 
2 55 56 
2 9 0 
2 57 13 
2 37 40 
2 5 9 
2 40 42 
2 2 5 
2 42 35 
2 7 2 
2 35 48 
2 11 7 
2 48 46 
2 15 11 
2 46 52 
2 17 15 
2 52 44 
2 20 17 
2 44 50 
2 57 20 
2 50 54 
2 22 57 
2 54 32 
2 24 22 
2 32 28 
2 56 24 
2 28 30 
2 26 56 
2 30 26 

CELL_TYPES 57
3
3
3
3
3
3
3
3
3
3
3
3
3
3
3
3
3
3
3
3
3
3
3
3
3
3
3
3
3
3
3
3
3
3
3
3
3
3
3
3
3
3
3
3
3
3
3
3
3
3
3
3
3
3
3
3
3

CELL_DATA 57
SCALARS SegmentationId int
LOOKUP_TABLE default
56 55 54 53 52 51 50 49 48 
47 46 45 44 43 42 41 40 39 
0 1 2 3 4 5 6 7 8 
9 10 11 38 32 13 34 14 36 
15 37 12 35 18 33 17 31 20 
30 16 29 19 24 21 28 26 22 
25 23 27 
METADATA
INFORMATION 0

FIELD FieldData 4
upNodeId 1 57 int
0 2 4 5 7 9 11 13 15 
17 19 20 22 24 26 28 30 32 
35 37 37 40 42 44 46 48 50 
52 54 56 1 14 40 10 42 6 
35 3 48 8 46 12 52 16 44 
18 50 21 54 57 33 23 29 25 
31 56 27 
METADATA
INFORMATION 0

downNodeId 1 57 int
1 3 1 6 8 10 12 14 16 
18 14 21 23 25 27 29 31 33 
34 36 38 39 41 43 45 47 49 
51 53 55 10 57 37 6 40 3 
42 8 35 12 48 16 46 18 52 
21 44 57 50 23 54 25 33 56 
29 27 31 
METADATA
INFORMATION 0

RegionSize 1 57 int
175 29 4 5 25 3 43 64 6 
4 6 4 30 0 546 456 78 64 
6365 87513 11 1 0 0 7 2 6 
2 10 3 109 92 102753 22 47791 71 
85109 115 111124 158 25748 1201 11799 144 2580 
443 615 501 9147 390 19093 802 48 6410 
1 2392 110 
METADATA
INFORMATION 0

RegionSpan 1 57 double
0.12597277761 0.079672180116 0.015625 0.049410589039 0.084143199027 0.046875 0.049410589039 0.064423523843 0.038273278624 
0.03125 0.022097086534 0.022097086534 0.049410589039 0.015625 0.066291257739 0.068107798696 0.265625 0.234375 
0.52871638536 0.42418348789 0.034938562661 0.015625 0.015625 0.015625 0.044194173068 0.022097086534 0.015625 
0.015625 0.015625 0.022097086534 0.23644915223 0.20846350491 0.33219206333 0.081189878285 0.038273278624 0.17258375883 
1.2411798239 0.079672180116 1.1282504797 0.32551041245 0.39218437672 0.26791295409 0.47649845481 0.18879759312 0.25863978267 
0.19764235616 0.41043516994 0.049410589039 0.20551478863 0.29892385006 0.40745013952 0.92517948151 0.51986891031 0.18221724033 
0.49063494802 0.58671820164 0.47341430187 
METADATA
INFORMATION 0

POINT_DATA 58
FIELD FieldData 2
Scalar 1 58 float
0.591177 0.69936 0.548276 0.622382 0.616138 0.561834 0.605897 0.535271 0.59912 
0.566439 0.590532 0.522396 0.587634 0.431762 0.515165 0.448532 0.477308 0.44136 
0.468587 0.456747 0.422341 0.444898 0.388844 0.443621 0.365689 0.396677 0.191274 
0.272606 0.190036 0.272056 0.190041 0.233971 0.189488 0.233064 0 0.0498866 
0.000611867 0.0338656 0.00721076 0.0107019 0.044758 0.017732 0.0478435 0.020478 0.0660042 
0.020538 0.0575065 0.0214656 0.0524761 0.0314226 0.0666292 0.0420675 0.0637802 0.0473535 
0.0808295 0.209191 0.233304 0.401912 
METADATA
INFORMATION 0

ttkMaskScalarField 1 58 char
0 0 0 0 0 0 0 0 0 
0 0 0 0 0 0 0 0 0 
0 0 0 0 0 0 0 0 0 
0 0 0 0 0 0 0 0 0 
0 0 0 0 0 0 0 0 0 
0 0 0 0 0 0 0 0 0 
0 0 0 0 
METADATA
INFORMATION 0

