# vtk DataFile Version 4.2
vtk output
ASCII
DATASET UNSTRUCTURED_GRID
POINTS 102 float
0.46875 1.35938 0.734375 0.453125 1.35938 0.78125 0.5 1.25 0.6875 
0.5 1.1875 0.6875 0.5 1.21875 0.53125 0.453125 1.29688 0.578125 
0.515625 1.40625 0.703125 0.46875 1.14062 0.890625 0.484375 1.20312 0.90625 
0.4375 1.45312 0.703125 0.4375 1.48438 0.6875 0.46875 1.17188 0.640625 
0.453125 1.15625 0.625 0.484375 1.14062 0.53125 0.484375 1.15625 0.515625 
0.484375 1.07812 0.53125 0.453125 1.0625 0.046875 0.453125 1.125 0 
0.484375 1.01562 0.875 0.484375 0.953125 0.875 0.46875 0.9375 0.90625 
0.484375 1 0.921875 0.46875 0.953125 0.640625 0.46875 0.921875 0.640625 
0.5 1.07812 0.859375 0.5 1.03125 0.875 0.46875 1.04688 0.609375 
0.46875 1.03125 0.59375 0.484375 1.10938 0.859375 0.5 1.09375 0.4375 
0.453125 1.07812 0.421875 0.515625 1.28125 0.546875 0.53125 1.26562 0.546875 
0.515625 1.17188 0.96875 0.46875 1.10938 0.984375 0.484375 1.04688 0.078125 
0.484375 0.921875 0.9375 0.46875 0.953125 0.984375 0.421875 1.375 0.609375 
0.421875 1.39062 0.59375 0.484375 0.9375 0.046875 0.484375 0.953125 0.015625 
0.46875 0.921875 0.484375 0.46875 0.921875 0.46875 0.484375 1 0.359375 
0.484375 0.96875 0.328125 0.484375 0.90625 0.046875 0.46875 0.953125 0.265625 
0.46875 0.96875 0.203125 0.484375 1.04688 0.46875 0.484375 1.03125 0.46875 
0.546875 1.375 0.609375 0.546875 1.35938 0.578125 0.46875 0.578125 0.703125 
0.421875 0.53125 0.71875 0.484375 0.578125 0.75 0.53125 0.53125 0.75 
0.421875 0.53125 0.21875 0.421875 0.53125 0 0.53125 0.53125 0.234375 
0.53125 0.53125 0 0.46875 0.453125 0 0.34375 0.015625 0.421875 
0.71875 1.20312 0.90625 0.5 1.35938 0.953125 0.34375 1.32812 0.90625 
0.34375 1.3125 0.90625 0.484375 1.375 0.9375 0.359375 1.32812 0.921875 
0.34375 1.32812 0.921875 0.375 1.32812 0.9375 0.375 1.32812 0.953125 
0.640625 1.14062 0.765625 0.65625 1.17188 0.78125 0.359375 1.10938 0.9375 
0.34375 1.125 0.9375 0.625 1.1875 0.546875 0.625 1.20312 0.546875 
0.609375 1.17188 0.578125 0.609375 1.1875 0.578125 0.390625 0.953125 0.234375 
0.359375 0.953125 0.25 0.5625 0.953125 0.265625 0.578125 0.96875 0.203125 
0.421875 1.1875 0.90625 0.390625 1.15625 0.890625 0.515625 1.26562 0.625 
0.53125 1.25 0.625 0.53125 1.23438 0.640625 0.59375 1.21875 0.671875 
0.59375 1.23438 0.671875 0.5 1.28125 0.609375 0.515625 1.28125 0.609375 
0.421875 1.04688 0.078125 0.40625 1.03125 0.0625 0.375 1.26562 0.765625 
0.390625 1.20312 0.75 0.4375 1.29688 0.578125 0.4375 1.03125 0 
0.546875 1.20312 0.625 0.46875 0.984375 0.203125 0.484375 1 0.828125 

METADATA
INFORMATION 2
NAME L2_NORM_RANGE LOCATION vtkDataArray
DATA 2 0.544414 1.73388 
NAME L2_NORM_FINITE_RANGE LOCATION vtkDataArray
DATA 2 0.544414 1.73388 

CELLS 101 303
2 0 1 
2 2 3 
2 4 5 
2 2 6 
2 7 8 
2 9 10 
2 11 12 
2 13 14 
2 13 15 
2 16 17 
2 18 19 
2 20 21 
2 22 23 
2 24 25 
2 26 27 
2 24 28 
2 29 30 
2 31 32 
2 33 34 
2 16 35 
2 36 37 
2 38 39 
2 40 41 
2 42 43 
2 44 45 
2 40 46 
2 47 48 
2 49 50 
2 51 52 
2 53 54 
2 55 56 
2 57 58 
2 59 60 
2 61 62 
2 63 64 
2 65 66 
2 67 64 
2 68 69 
2 70 71 
2 72 73 
2 74 75 
2 76 77 
2 78 79 
2 80 81 
2 82 83 
2 84 85 
2 86 87 
2 88 87 
2 89 90 
2 91 92 
2 93 94 
2 95 96 
2 97 2 
2 4 13 
2 18 24 
2 98 16 
2 98 40 
2 64 66 
2 87 99 
2 97 4 
2 7 18 
2 100 98 
2 66 71 
2 0 97 
2 101 7 
2 71 69 
2 11 0 
2 69 77 
2 22 11 
2 77 73 
2 31 22 
2 73 62 
2 9 31 
2 62 75 
2 26 9 
2 75 79 
2 101 26 
2 79 81 
2 20 101 
2 81 83 
2 29 20 
2 83 85 
2 36 29 
2 85 90 
2 38 36 
2 90 99 
2 42 38 
2 99 92 
2 44 42 
2 92 94 
2 47 44 
2 94 57 
2 33 47 
2 57 59 
2 100 33 
2 59 55 
2 49 100 
2 55 53 
2 51 49 
2 53 96 
2 96 51 

CELL_TYPES 101
3
3
3
3
3
3
3
3
3
3
3
3
3
3
3
3
3
3
3
3
3
3
3
3
3
3
3
3
3
3
3
3
3
3
3
3
3
3
3
3
3
3
3
3
3
3
3
3
3
3
3
3
3
3
3
3
3
3
3
3
3
3
3
3
3
3
3
3
3
3
3
3
3
3
3
3
3
3
3
3
3
3
3
3
3
3
3
3
3
3
3
3
3
3
3
3
3
3
3
3
3

CELL_DATA 101
SCALARS SegmentationId int
LOOKUP_TABLE default
100 99 98 97 96 95 94 93 92 
91 90 89 88 87 86 85 84 83 
82 81 80 79 78 77 76 75 74 
73 72 71 70 69 68 0 1 2 
3 4 5 6 7 8 9 10 11 
12 13 14 15 16 17 18 66 61 
56 60 49 20 31 65 59 39 21 
41 64 23 67 22 62 26 57 24 
53 19 63 25 55 27 40 28 58 
29 54 30 51 32 50 36 48 33 
47 34 46 42 52 43 38 44 45 
37 35 
METADATA
INFORMATION 0

FIELD FieldData 4
upNodeId 1 101 int
0 2 4 6 7 9 11 13 15 
16 18 20 22 24 26 28 29 31 
33 35 36 38 40 42 44 46 47 
49 51 53 55 57 59 62 64 66 
64 69 71 73 75 77 79 81 83 
85 87 87 90 92 94 96 3 14 
25 17 41 66 99 5 19 98 71 
97 8 69 1 77 12 73 23 62 
32 75 10 79 27 81 101 83 21 
85 30 90 37 99 39 92 43 94 
45 58 48 60 34 56 100 54 50 
96 52 
METADATA
INFORMATION 0

downNodeId 1 101 int
1 3 5 3 8 10 12 14 14 
17 19 21 23 25 27 25 30 32 
34 17 37 39 41 43 45 41 48 
50 52 54 56 58 60 61 63 65 
67 68 70 72 74 76 78 80 82 
84 86 88 89 91 93 95 97 5 
19 98 98 64 87 97 8 100 66 
1 101 71 12 69 23 77 32 73 
10 62 27 75 101 79 21 81 30 
83 37 85 39 90 43 99 45 92 
48 94 34 58 100 60 50 56 52 
54 96 
METADATA
INFORMATION 0

RegionSize 1 101 int
388 34 23 37 29 13 11 14 5 
62 17 10 20 13 6 6 23 3 
50 62 13 2 14 6 17 5 7 
0 3 545 445 96 67 6475 117344 1 
1 0 0 17 7 3 2 18 11 
21 2 5 6 1 8 13 135 4 
0 26 10 14750 0 1 0 11 55102 
41 15 33951 123 61432 155 17365 33 35916 
74 108522 33 1243 5 30772 138 5376 684 
3249 387 5792 67 354 255 4398 514 1137 
30 2220 2 586 120 139 1897 50 1781 
5367 3943 
METADATA
INFORMATION 0

RegionSpan 1 101 double
0.049410589039 0.0625 0.10245997459 0.15780475736 0.066291257739 0.034938562661 0.027063293383 0.022097086534 0.0625 
0.078125 0.0625 0.066291257739 0.03125 0.049410589039 0.022097086534 0.034938562661 0.051822263747 0.022097086534 
0.079672180116 0.046875 0.058463398367 0.022097086534 0.034938562661 0.015625 0.044194173068 0.03125 0.064423523843 
0.015625 0.034938562661 0.068107798696 0.066291257739 0.21875 0.234375 0.62049156427 0.27287888527 0.015625 
0.027063293383 0.015625 0.015625 0.038273278624 0.022097086534 0.015625 0.015625 0.034938562661 0.066291257739 
0.046875 0.022097086534 0.022097086534 0.015625 0.015625 0.027063293383 0.066291257739 0.13441133499 0.079672180116 
0.066291257739 0.058463398367 0.11481983215 0.16973094642 0.049410589039 0.11048543453 0.12693810463 0.21079277992 0.058463398367 
0.17116330564 0.15467961133 0.044194173068 0.20963136852 0.48513045907 0.21875 0.23850527406 0.34445950389 1.250488162 
0.24506855011 1.2233487368 0.41809651256 0.45123529434 0.22426094115 0.47444456816 0.10126157105 0.22426094115 0.49509310722 
0.73686414957 0.52894723415 0.30856901407 0.56293386221 0.0732877478 0.47238177061 0.08558165282 0.14823175967 0.61117523909 
0.10597390682 0.52407842875 0.73785746098 0.11048543453 0.78964239359 0.51986891031 0.2733258605 0.049410589039 0.36241915822 
0.63160574436 0.27153354883 
METADATA
INFORMATION 0

POINT_DATA 102
FIELD FieldData 2
Scalar 1 102 float
0.521578 0.670314 0.562276 0.615992 0.530228 0.614736 0.59951 0.501039 0.582074 
0.497039 0.575654 0.512531 0.568555 0.535273 0.567917 0.566876 0.423666 0.556175 
0.501139 0.541885 0.489379 0.540368 0.50306 0.539806 0.504048 0.535151 0.495534 
0.534346 0.533676 0.459849 0.531948 0.50104 0.526909 0.412502 0.503437 0.48685 
0.443554 0.483549 0.44103 0.472948 0.420134 0.464208 0.43192 0.456772 0.41364 
0.449556 0.448486 0.412521 0.437341 0.363266 0.385477 0.330083 0.354539 0.191486 
0.27245 0.19088 0.272226 0.183941 0.234139 0.18933 0.233888 0 0.049894 
0.000411141 0.0355909 0.00329443 0.037484 0.00971872 0.012013 0.0451866 0.0145315 0.0424529 
0.0165993 0.0491596 0.018363 0.0552863 0.0213407 0.0485301 0.0321225 0.0555609 0.0392528 
0.0764112 0.0436738 0.0889914 0.0438422 0.0989709 0.069684 0.125854 0.0887759 0.102804 
0.124903 0.134687 0.157906 0.138229 0.166351 0.217016 0.26867 0.528385 0.411088 
0.126978 0.408962 0.495309 
METADATA
INFORMATION 0

ttkMaskScalarField 1 102 char
0 0 0 0 0 0 0 0 0 
0 0 0 0 0 0 0 0 0 
0 0 0 0 0 0 0 0 0 
0 0 0 0 0 0 0 0 0 
0 0 0 0 0 0 0 0 0 
0 0 0 0 0 0 0 0 0 
0 0 0 0 0 0 0 0 0 
0 0 0 0 0 0 0 0 0 
0 0 0 0 0 0 0 0 0 
0 0 0 0 0 0 0 0 0 
0 0 0 0 0 0 0 0 0 
0 0 0 
METADATA
INFORMATION 0

