# vtk DataFile Version 4.2
vtk output
ASCII
DATASET UNSTRUCTURED_GRID
POINTS 52 float
0.46875 1.1875 0.6875 0.46875 1.14062 0.703125 0.46875 1.21875 0.640625 
0.46875 1.07812 0.796875 0.484375 1.20312 0.796875 0.453125 1.17188 0.84375 
0.484375 1.125 0.890625 0.46875 1.03125 0.796875 0.484375 1.28125 0.734375 
0.515625 1.17188 0.734375 0.484375 1.09375 0.515625 0.46875 1.04688 0.484375 
0.46875 1.32812 0.734375 0.453125 1.35938 0.734375 0.484375 0.890625 0.21875 
0.484375 1.04688 0 0.46875 0.96875 0.96875 0.46875 0.921875 0.96875 
0.46875 0.90625 0 0.46875 0.828125 0 0.4375 1.15625 0.5625 
0.4375 1.17188 0.5625 0.46875 0.578125 0.734375 0.421875 0.53125 0.75 
0.53125 0.53125 0.265625 0.53125 0.53125 0.75 0.421875 0.53125 0.234375 
0.421875 0.53125 0 0.53125 0.53125 0 0.46875 0.453125 0 
0.484375 0.046875 0.09375 0.71875 1.10938 0.875 0.421875 1.1875 0.5 
0.25 1.125 0.90625 0.578125 1.125 0.5625 0.578125 1.14062 0.53125 
0.578125 1.20312 0.578125 0.609375 1.17188 0.578125 0.640625 1.07812 0.78125 
0.65625 1.07812 0.765625 0.609375 1.10938 0.890625 0.625 1.10938 0.921875 
0.59375 1.20312 0.859375 0.625 1.15625 0.84375 0.5625 1.17188 0.96875 
0.578125 1.17188 0.96875 0.40625 0.890625 0.234375 0.375 0.890625 0.25 
0.5625 0.890625 0.21875 0.578125 0.890625 0.1875 0.484375 0.578125 0.71875 
0.515625 1.17188 0.75 
METADATA
INFORMATION 2
NAME L2_NORM_RANGE LOCATION vtkDataArray
DATA 2 0.495586 1.62665 
NAME L2_NORM_FINITE_RANGE LOCATION vtkDataArray
DATA 2 0.495586 1.62665 

CELLS 51 153
2 0 1 
2 0 2 
2 3 4 
2 5 6 
2 3 7 
2 8 9 
2 10 11 
2 12 13 
2 14 15 
2 16 17 
2 18 19 
2 20 21 
2 22 23 
2 24 25 
2 26 27 
2 24 28 
2 29 30 
2 31 32 
2 33 32 
2 34 35 
2 36 37 
2 38 39 
2 40 41 
2 42 43 
2 44 45 
2 46 47 
2 48 49 
2 8 0 
2 5 3 
2 50 24 
2 32 35 
2 51 8 
2 51 5 
2 35 37 
2 10 51 
2 37 41 
2 12 10 
2 41 39 
2 16 12 
2 39 43 
2 14 16 
2 43 30 
2 18 14 
2 30 45 
2 20 18 
2 45 47 
2 50 20 
2 47 49 
2 22 50 
2 49 26 
2 26 22 

CELL_TYPES 51
3
3
3
3
3
3
3
3
3
3
3
3
3
3
3
3
3
3
3
3
3
3
3
3
3
3
3
3
3
3
3
3
3
3
3
3
3
3
3
3
3
3
3
3
3
3
3
3
3
3
3

CELL_DATA 51
SCALARS SegmentationId int
LOOKUP_TABLE default
50 49 48 47 46 45 44 43 42 
41 40 39 38 37 36 35 0 1 
2 3 4 5 6 7 8 9 10 
34 33 23 12 31 32 13 22 14 
30 16 29 15 27 17 28 11 26 
18 25 19 21 20 24 
METADATA
INFORMATION 0

FIELD FieldData 4
upNodeId 1 51 int
0 2 3 5 7 8 10 12 14 
16 18 20 22 24 26 28 30 32 
32 35 37 39 41 43 45 47 49 
1 4 25 35 9 6 37 51 41 
11 39 13 43 17 30 15 45 19 
47 21 49 50 27 23 
METADATA
INFORMATION 0

downNodeId 1 51 int
1 1 4 6 4 9 11 13 15 
17 19 21 23 25 27 25 29 31 
33 34 36 38 40 42 44 46 48 
9 6 50 32 51 51 35 11 37 
13 41 17 39 15 43 19 30 21 
45 50 47 23 49 27 
METADATA
INFORMATION 0

RegionSize 1 51 int
26 29 42 52 3 17 12 6 159 
11 15 0 554 456 83 70 6605 48808 
44602 3 6 4 7 9 0 10 14 
149 34 1 2561 1 0 24918 154 10175 
192 1537 1238 14882 912 175887 168 147347 480 
5962 8860 5554 14 21440 167 
METADATA
INFORMATION 0

RegionSpan 1 51 double
0.049410589039 0.056336738169 0.12597277761 0.0732877478 0.046875 0.11375171691 0.058463398367 0.034938562661 0.26882266998 
0.046875 0.078125 0.015625 0.068107798696 0.484375 0.234375 0.265625 0.41721969843 0.48462694883 
0.44551804662 0.034938562661 0.044194173068 0.022097086534 0.034938562661 0.058463398367 0.015625 0.034938562661 0.034938562661 
0.10597390682 0.10597390682 0.45794847608 0.16609603167 0.11481983215 0.11267347634 0.064423523843 0.24902151525 0.34973484278 
0.32097873092 0.16237975657 0.42904782295 0.11481983215 0.75421988964 1.3464725018 0.21986323595 1.4282993078 0.61634635925 
0.79809957743 0.60069948435 0.21252298355 0.022097086534 0.39466658235 0.50437539816 
METADATA
INFORMATION 0

POINT_DATA 52
FIELD FieldData 2
Scalar 1 52 float
0.617957 0.667186 0.656202 0.592365 0.656171 0.559531 0.633508 0.621077 0.560571 
0.589054 0.540758 0.576101 0.522512 0.557303 0.402573 0.527448 0.442037 0.475138 
0.396288 0.427985 0.380544 0.402822 0.189654 0.272388 0.189887 0.272377 0.187858 
0.234572 0.23326 0 0.0499091 0.000591467 0.0355866 0.00171769 0.0125232 0.0359774 
0.0132557 0.0394009 0.0134371 0.0405632 0.0155623 0.0404133 0.0181039 0.0418293 0.0344458 
0.0618776 0.0359887 0.0668466 0.0510232 0.0741141 0.189804 0.559313 
METADATA
INFORMATION 0

ttkMaskScalarField 1 52 char
0 0 0 0 0 0 0 0 0 
0 0 0 0 0 0 0 0 0 
0 0 0 0 0 0 0 0 0 
0 0 0 0 0 0 0 0 0 
0 0 0 0 0 0 0 0 0 
0 0 0 0 0 0 0 
METADATA
INFORMATION 0

