# vtk DataFile Version 4.2
vtk output
ASCII
DATASET UNSTRUCTURED_GRID
POINTS 72 float
0.5 1.32812 0.703125 0.484375 1.29688 0.75 0.484375 1.3125 0.6875 
0.484375 1.25 0.765625 0.484375 1.3125 0.828125 0.453125 1.3125 0.609375 
0.46875 1.3125 0.59375 0.484375 1.09375 0.734375 0.484375 1.0625 0.734375 
0.484375 1.20312 0.90625 0.484375 1.1875 0.9375 0.484375 1.21875 0.578125 
0.484375 1.15625 0.515625 0.484375 1.26562 0.90625 0.5 1.28125 0.921875 
0.46875 0.921875 0.859375 0.484375 1.07812 0.890625 0.484375 0.984375 0.84375 
0.484375 0.9375 0.84375 0.484375 1.03125 0.078125 0.5 1.125 0.015625 
0.5 1.45312 0.796875 0.515625 1.45312 0.8125 0.421875 1.3125 0.734375 
0.390625 1.3125 0.75 0.484375 0.875 0.921875 0.46875 0.921875 0.9375 
0.484375 1.03125 0.390625 0.46875 1.01562 0.375 0.515625 1.4375 0.734375 
0.515625 1.46875 0.734375 0.46875 0.84375 0.953125 0.46875 0.890625 0.984375 
0.484375 1.01562 0.109375 0.46875 0.96875 0.03125 0.46875 0.890625 0 
0.46875 0.90625 0.03125 0.46875 0.890625 0.046875 0.46875 0.578125 0.765625 
0.421875 0.53125 0.75 0.484375 0.578125 0.75 0.53125 0.53125 0.734375 
0.53125 0.53125 0.203125 0.53125 0.53125 0.015625 0.421875 0.53125 0.234375 
0.421875 0.53125 0 0.515625 1.98438 0.265625 0.515625 1.40625 0 
0.46875 0.453125 0 0.296875 0.03125 0.296875 0.765625 1.1875 0.71875 
0.34375 0.9375 0.984375 0.65625 1.15625 0.75 0.65625 1.17188 0.765625 
0.59375 1.14062 0.828125 0.578125 1.20312 0.84375 0.421875 0.90625 0.953125 
0.3125 1.09375 0.734375 0.296875 1.125 0.734375 0.515625 0.984375 0.9375 
0.5625 0.984375 0.953125 0.59375 1.17188 0.578125 0.625 1.1875 0.5625 
0.484375 1.32812 0.953125 0.46875 1.32812 0.953125 0.390625 0.953125 0.21875 
0.359375 0.953125 0.21875 0.5625 0.9375 0.25 0.59375 0.953125 0.265625 
0.53125 1.28125 0.625 0.546875 1.28125 0.640625 0.46875 0.953125 0.21875 

METADATA
INFORMATION 2
NAME L2_NORM_RANGE LOCATION vtkDataArray
DATA 2 0.421006 2.06741 
NAME L2_NORM_FINITE_RANGE LOCATION vtkDataArray
DATA 2 0.421006 2.06741 

CELLS 71 213
2 0 1 
2 0 2 
2 3 4 
2 5 6 
2 7 8 
2 9 10 
2 11 12 
2 13 14 
2 15 16 
2 17 18 
2 19 20 
2 21 22 
2 23 24 
2 25 26 
2 27 28 
2 29 30 
2 31 32 
2 19 33 
2 34 35 
2 36 37 
2 38 39 
2 40 41 
2 42 43 
2 44 45 
2 46 47 
2 48 49 
2 50 51 
2 52 53 
2 54 55 
2 56 51 
2 57 58 
2 59 60 
2 61 62 
2 63 64 
2 65 66 
2 67 68 
2 69 70 
2 5 0 
2 34 19 
2 51 53 
2 7 5 
2 71 34 
2 53 55 
2 3 7 
2 55 58 
2 9 3 
2 58 46 
2 11 9 
2 46 49 
2 13 11 
2 49 60 
2 17 13 
2 60 62 
2 15 17 
2 62 64 
2 21 15 
2 64 66 
2 25 21 
2 66 68 
2 23 25 
2 68 42 
2 27 23 
2 42 44 
2 29 27 
2 44 38 
2 31 29 
2 38 40 
2 71 31 
2 40 70 
2 36 71 
2 70 36 

CELL_TYPES 71
3
3
3
3
3
3
3
3
3
3
3
3
3
3
3
3
3
3
3
3
3
3
3
3
3
3
3
3
3
3
3
3
3
3
3
3
3
3
3
3
3
3
3
3
3
3
3
3
3
3
3
3
3
3
3
3
3
3
3
3
3
3
3
3
3
3
3
3
3
3
3

CELL_DATA 71
SCALARS SegmentationId int
LOOKUP_TABLE default
70 69 68 67 66 65 64 63 62 
61 60 59 58 57 56 55 54 53 
52 51 50 49 48 47 46 0 1 
2 3 4 5 6 7 8 9 10 
11 45 36 13 43 29 14 42 15 
44 16 41 23 40 12 39 17 37 
18 38 19 35 20 33 21 34 26 
32 28 31 27 30 25 24 22 
METADATA
INFORMATION 0

FIELD FieldData 4
upNodeId 1 71 int
0 2 3 5 7 9 11 13 15 
17 19 21 23 25 27 29 31 33 
34 36 38 40 42 44 46 49 51 
53 55 51 58 60 62 64 66 68 
70 1 20 53 6 35 55 8 58 
4 47 10 49 12 60 14 62 18 
64 16 66 22 68 26 43 24 45 
28 39 30 41 32 70 71 37 
METADATA
INFORMATION 0

downNodeId 1 71 int
1 1 4 6 8 10 12 14 16 
18 20 22 24 26 28 30 32 20 
35 37 39 41 43 45 47 48 50 
52 54 56 57 59 61 63 65 67 
69 6 35 51 8 71 53 4 55 
10 58 12 47 14 49 18 60 16 
62 22 64 26 66 24 68 28 43 
30 45 32 39 71 41 37 70 
METADATA
INFORMATION 0

RegionSize 1 71 int
69 54 91 12 3 11 26 7 21 
5 88 5 8 7 7 13 17 12 
11 3 562 454 76 88 6484 6878 111841 
6 13 54 6 38 7 0 11 22 
3 37 23 2006 47 66 24378 113 33612 
85 152766 32 4962 47 97373 375 27307 274 
9294 456 8300 131 706 80 20769 266 202 
353 209 20 6 898 4169 400 7441 
METADATA
INFORMATION 0

RegionSpan 1 71 double
0.058463398367 0.027063293383 0.088388346136 0.022097086534 0.03125 0.034938562661 0.088388346136 0.027063293383 0.16010861099 
0.046875 0.11375171691 0.022097086534 0.034938562661 0.051822263747 0.027063293383 0.03125 0.056336738169 0.034938562661 
0.084143199027 0.022097086534 0.068107798696 0.068107798696 0.1875 0.234375 0.6362273097 0.54374104738 0.55770528316 
0.022097086534 0.066291257739 0.089758791029 0.034938562661 0.049410589039 0.038273278624 0.015625 0.03125 0.038273278624 
0.022097086534 0.10597390682 0.079672180116 0.44770464301 0.25387620926 0.18814991415 0.11481983215 0.15934436023 0.31171777844 
0.14823175967 1.0030471087 0.32849681377 1.9655852318 0.3314563036 1.187294364 0.28811076283 0.4446952939 0.066291257739 
0.44359591603 0.53582590818 0.83180195093 0.59169048071 0.2390165329 0.48007160425 0.43103483319 0.4485218823 0.11375171691 
0.5330850482 0.53537005186 0.63449811935 0.022097086534 0.74247527122 0.71432060003 0.19327057898 0.71976828575 
METADATA
INFORMATION 0

POINT_DATA 72
FIELD FieldData 2
Scalar 1 72 float
0.597091 0.671496 0.656507 0.563046 0.639317 0.585844 0.627942 0.577708 0.605791 
0.555068 0.605088 0.552597 0.59735 0.547822 0.589911 0.503997 0.563729 0.522836 
0.546184 0.43749 0.541803 0.479568 0.5205 0.469546 0.50714 0.473256 0.500948 
0.458613 0.489891 0.443858 0.488215 0.442889 0.472719 0.468091 0.428552 0.456394 
0.397793 0.430253 0.189599 0.272217 0.189664 0.271373 0.185254 0.236625 0.18734 
0.232729 0.0498455 0.0732218 0 0.0499024 0.000816773 0.0352306 0.007028 0.0355038 
0.00954405 0.038608 0.0105005 0.0115996 0.0415385 0.0278226 0.0532386 0.0311122 0.0602663 
0.0412612 0.0670003 0.041845 0.0783648 0.0465402 0.0796927 0.203693 0.254638 0.409768 

METADATA
INFORMATION 0

ttkMaskScalarField 1 72 char
0 0 0 0 0 0 0 0 0 
0 0 0 0 0 0 0 0 0 
0 0 0 0 0 0 0 0 0 
0 0 0 0 0 0 0 0 0 
0 0 0 0 0 0 0 0 0 
0 0 0 0 0 0 0 0 0 
0 0 0 0 0 0 0 0 0 
0 0 0 0 0 0 0 0 0 

METADATA
INFORMATION 0

