# vtk DataFile Version 4.2
vtk output
ASCII
DATASET UNSTRUCTURED_GRID
POINTS 89 float
0.484375 1.4375 0.734375 0.46875 1.42188 0.703125 0.484375 1.5 0.71875 
0.484375 1.39062 0.6875 0.5 1.40625 0.671875 0.484375 1.26562 0.84375 
0.484375 1.375 0.84375 0.484375 1.20312 0.78125 0.46875 1.20312 0.8125 
0.46875 1.17188 0.765625 0.484375 1.1875 0.859375 0.484375 1.21875 0.5625 
0.46875 1.1875 0.578125 0.5 1.23438 0.5625 0.46875 1 0.5 
0.453125 1.17188 0.484375 0.4375 1.1875 0.6875 0.4375 1.17188 0.6875 
0.453125 1.04688 0.65625 0.46875 1 0.65625 0.46875 1.03125 0.96875 
0.4375 1.125 0.984375 0.484375 1.01562 0 0.421875 1.14062 0 
0.46875 0.984375 0.890625 0.46875 1.01562 0.90625 0.515625 1.28125 0.578125 
0.53125 1.32812 0.59375 0.46875 1.10938 0.421875 0.5 1.0625 0.390625 
0.484375 1.01562 0.09375 0.5 1.04688 0.09375 0.484375 0.90625 0 
0.515625 1.07812 0.53125 0.515625 1.09375 0.53125 0.484375 0.984375 0.125 
0.46875 1 0.171875 0.46875 1.01562 0.09375 0.46875 1.01562 0.453125 
0.46875 1 0.453125 0.46875 0.890625 0.390625 0.453125 0.859375 0.390625 
0.484375 0.578125 0.6875 0.53125 0.53125 0.734375 0.421875 0.53125 0.265625 
0.421875 0.53125 0.75 0.53125 0.53125 0.28125 0.53125 0.53125 0 
0.421875 0.53125 0 0.546875 1.09375 0.984375 0.5625 1.14062 0.984375 
0.46875 0.453125 0 0.65625 0.015625 0.046875 0.703125 1.25 0.875 
0.65625 1.20312 0.703125 0.65625 1.17188 0.75 0.453125 1.35938 0.515625 
0.484375 1.35938 0.5 0.546875 0.9375 0.015625 0.59375 0.9375 0.03125 
0.53125 1.125 0.984375 0.53125 1.125 0.96875 0.5 1.14062 0 
0.46875 1.1875 0 0.53125 1.14062 0.96875 0.375 1.15625 0.53125 
0.359375 1.17188 0.53125 0.5625 0.96875 0.265625 0.59375 0.96875 0.28125 
0.375 0.96875 0.25 0.359375 0.96875 0.234375 0.375 1.1875 0.859375 
0.375 1.17188 0.859375 0.390625 1.17188 0.859375 0.40625 1.04688 0.0625 
0.390625 1.0625 0.015625 0.40625 1.29688 0.671875 0.40625 1.3125 0.65625 
0.46875 1.25 0.890625 0.453125 1.26562 0.90625 0.484375 1.375 0.796875 
0.484375 1.3125 0.765625 0.46875 1.20312 0.734375 0.46875 1.42188 0.765625 
0.46875 0.953125 0.640625 0.46875 0.921875 0.078125 0.46875 0.578125 0.796875 
0.5625 1.17188 0.953125 0.46875 1 0.265625 
METADATA
INFORMATION 2
NAME L2_NORM_RANGE LOCATION vtkDataArray
DATA 2 0.651958 1.7324 
NAME L2_NORM_FINITE_RANGE LOCATION vtkDataArray
DATA 2 0.651958 1.7324 

CELLS 88 264
2 0 1 
2 0 2 
2 3 4 
2 5 6 
2 7 8 
2 7 9 
2 5 10 
2 11 12 
2 11 13 
2 14 15 
2 16 17 
2 18 19 
2 20 21 
2 22 23 
2 24 25 
2 26 27 
2 28 29 
2 30 31 
2 22 32 
2 33 34 
2 35 36 
2 30 37 
2 38 39 
2 40 41 
2 42 43 
2 44 45 
2 46 47 
2 44 48 
2 49 50 
2 51 52 
2 53 54 
2 55 54 
2 56 57 
2 58 59 
2 60 61 
2 62 63 
2 64 61 
2 65 66 
2 67 68 
2 69 70 
2 71 72 
2 73 72 
2 74 75 
2 76 77 
2 78 79 
2 80 81 
2 3 0 
2 82 7 
2 83 5 
2 84 11 
2 85 22 
2 35 30 
2 86 44 
2 54 59 
2 61 87 
2 82 3 
2 88 35 
2 59 57 
2 83 82 
2 57 52 
2 16 83 
2 52 66 
2 18 16 
2 66 70 
2 84 18 
2 70 72 
2 24 84 
2 72 68 
2 26 24 
2 68 75 
2 20 26 
2 75 63 
2 14 20 
2 63 87 
2 28 14 
2 87 86 
2 33 28 
2 86 46 
2 38 33 
2 46 42 
2 88 38 
2 42 49 
2 85 88 
2 49 79 
2 81 85 
2 79 77 
2 40 81 
2 77 40 

CELL_TYPES 88
3
3
3
3
3
3
3
3
3
3
3
3
3
3
3
3
3
3
3
3
3
3
3
3
3
3
3
3
3
3
3
3
3
3
3
3
3
3
3
3
3
3
3
3
3
3
3
3
3
3
3
3
3
3
3
3
3
3
3
3
3
3
3
3
3
3
3
3
3
3
3
3
3
3
3
3
3
3
3
3
3
3
3
3
3
3
3
3

CELL_DATA 88
SCALARS SegmentationId int
LOOKUP_TABLE default
87 86 85 84 83 82 81 80 79 
78 77 76 75 74 73 72 71 70 
69 68 67 66 65 64 63 62 61 
60 59 0 1 2 3 4 5 6 
7 8 9 10 11 12 13 14 15 
16 58 55 56 54 49 45 40 18 
21 57 43 20 37 19 36 17 52 
23 51 25 35 26 48 24 47 27 
50 22 53 31 46 39 44 41 42 
38 33 34 30 29 32 28 
METADATA
INFORMATION 0

FIELD FieldData 4
upNodeId 1 88 int
0 2 3 5 7 9 10 11 13 
14 16 18 20 22 24 26 28 30 
32 33 35 37 38 40 42 44 46 
48 49 52 54 54 57 59 61 63 
61 66 68 70 72 72 75 77 79 
81 1 8 6 12 23 31 45 59 
87 4 36 57 82 52 83 66 17 
70 19 72 84 68 25 75 27 63 
21 87 15 86 29 47 34 43 39 
50 88 79 85 77 81 41 
METADATA
INFORMATION 0

downNodeId 1 88 int
1 1 4 6 8 8 6 12 12 
15 17 19 21 23 25 27 29 31 
23 34 36 31 39 41 43 45 47 
45 50 51 53 55 56 58 60 62 
64 65 67 69 71 73 74 76 78 
80 4 82 83 84 85 36 86 54 
61 82 88 59 83 57 17 52 19 
66 84 70 25 72 27 68 21 75 
15 63 29 87 34 86 39 47 88 
43 85 50 81 79 41 77 
METADATA
INFORMATION 0

RegionSize 1 88 int
16 7 15 110 12 18 13 14 4 
66 5 9 57 38 3 12 28 21 
50 2 16 4 2 4 468 575 79 
83 9 7407 101610 8 3 22 4 23 
0 8 17 11 0 0 27 3 12 
17 45 4 12 69 30 16 27 55854 
20 73 70 14624 106 172203 232 125770 131 
8845 281 2552 212 1436 200 4117 945 2469 
116 211 206 7940 76 13 930 110 526 
296 538 4272 248 924 1759 4779 
METADATA
INFORMATION 0

RegionSpan 1 88 double
0.038273278624 0.064423523843 0.027063293383 0.109375 0.034938562661 0.038273278624 0.079672180116 0.038273278624 0.022097086534 
0.17328962684 0.015625 0.049410589039 0.10004881769 0.13975425065 0.034938562661 0.051822263747 0.064423523843 0.034938562661 
0.109375 0.015625 0.051822263747 0.015625 0.015625 0.034938562661 0.081189878285 0.484375 0.28125 
0.265625 0.049410589039 0.47828838229 0.18421603739 0.056336738169 0.034938562661 0.049410589039 0.015625 0.056336738169 
0.015625 0.022097086534 0.034938562661 0.022097086534 0.015625 0.015625 0.051822263747 0.022097086534 0.027063293383 
0.069877125323 0.066291257739 0.049410589039 0.17539018393 0.27731624246 0.12303137034 0.044194173068 0.53537005186 0.72517508268 
0.058463398367 0.19390115142 0.14235052466 0.64005309343 0.22097086906 1.4284702539 0.24902151525 1.2882809639 0.14490029216 
0.35971450806 0.09631896764 0.6573651433 0.25194555521 0.65064573288 0.43357616663 0.34728297591 0.4661385715 0.14823175967 
0.46979051828 0.95785200596 0.13441133499 0.62108147144 0.12303137034 0.521510005 0.11048543453 0.41162312031 0.18814991415 
0.59825593233 0.203125 0.21079277992 0.79087817669 0.25863978267 0.56466597319 0.50243544579 
METADATA
INFORMATION 0

POINT_DATA 89
FIELD FieldData 2
Scalar 1 89 float
0.659082 0.717285 0.684251 0.629081 0.679576 0.581054 0.650962 0.59741 0.626492 
0.624673 0.624636 0.548988 0.58552 0.581402 0.448892 0.573539 0.549622 0.573287 
0.53741 0.562252 0.453454 0.542626 0.393722 0.540158 0.501427 0.526039 0.492108 
0.52419 0.441817 0.50719 0.429404 0.48961 0.471826 0.439639 0.464986 0.415423 
0.453393 0.452078 0.411135 0.437334 0.343025 0.38446 0.188677 0.272954 0.188624 
0.272801 0.187189 0.233962 0.233751 0.193104 0.224324 0 0.0499196 0.000756779 
0.0319032 0.00746608 0.00854636 0.0403462 0.0135574 0.0391602 0.0216134 0.0624687 0.0302582 
0.126757 0.0329581 0.0396615 0.0696663 0.057518 0.0973584 0.059882 0.0853281 0.0604877 
0.0929015 0.070552 0.0724612 0.113745 0.227122 0.269779 0.230963 0.255463 0.317709 
0.375933 0.595294 0.575582 0.513458 0.380947 0.186977 0.128071 0.394944 
METADATA
INFORMATION 0

ttkMaskScalarField 1 89 char
0 0 0 0 0 0 0 0 0 
0 0 0 0 0 0 0 0 0 
0 0 0 0 0 0 0 0 0 
0 0 0 0 0 0 0 0 0 
0 0 0 0 0 0 0 0 0 
0 0 0 0 0 0 0 0 0 
0 0 0 0 0 0 0 0 0 
0 0 0 0 0 0 0 0 0 
0 0 0 0 0 0 0 0 0 
0 0 0 0 0 0 0 0 
METADATA
INFORMATION 0

