# vtk DataFile Version 4.2
vtk output
ASCII
DATASET UNSTRUCTURED_GRID
POINTS 92 float
0.46875 1.3125 0.78125 0.453125 1.25 0.765625 0.46875 1.35938 0.8125 
0.46875 1.15625 0.8125 0.46875 1.09375 0.796875 0.453125 1.21875 0.59375 
0.46875 1.23438 0.5625 0.5 1.17188 0.6875 0.5 1.32812 0.6875 
0.453125 1.125 0.875 0.484375 1.14062 0.90625 0.484375 1.09375 0.671875 
0.484375 1.09375 0.703125 0.46875 1.07812 0.71875 0.453125 1.39062 0.703125 
0.453125 1.42188 0.6875 0.46875 1.21875 0.625 0.46875 1.14062 0.625 
0.453125 1.07812 0.625 0.484375 1.0625 0.515625 0.484375 1.03125 0.53125 
0.46875 1.03125 0.0625 0.453125 1.09375 0 0.46875 0.90625 0.90625 
0.484375 0.953125 0.921875 0.484375 0.96875 0.859375 0.484375 0.921875 0.875 
0.46875 0.984375 0.609375 0.46875 0.96875 0.59375 0.484375 0.9375 0.671875 
0.484375 0.890625 0.65625 0.5 1.0625 0.4375 0.453125 1.04688 0.421875 
0.53125 1.21875 0.90625 0.53125 1.25 0.890625 0.484375 1.01562 0.078125 
0.5 1.125 0.984375 0.46875 1.09375 0.984375 0.484375 0.875 0.953125 
0.46875 0.90625 0.984375 0.46875 0.921875 0.015625 0.484375 0.90625 0.015625 
0.46875 0.921875 0.265625 0.484375 0.953125 0.328125 0.453125 1.01562 0.96875 
0.453125 1 0.96875 0.484375 0.96875 0.140625 0.484375 0.953125 0.171875 
0.46875 0.84375 0.03125 0.484375 0.859375 0.046875 0.46875 0.578125 0.703125 
0.421875 0.53125 0.71875 0.484375 0.578125 0.75 0.53125 0.53125 0.75 
0.421875 0.53125 0.21875 0.421875 0.53125 0 0.53125 0.53125 0.234375 
0.53125 0.53125 0 0.46875 0.453125 0 0.609375 0.046875 0.25 
0.734375 1.17188 0.59375 0.46875 1.29688 0.515625 0.46875 1.3125 0.53125 
0.609375 1.14062 0.5625 0.625 1.15625 0.546875 0.359375 1.28125 0.90625 
0.359375 1.29688 0.9375 0.625 1.07812 0.734375 0.640625 1.10938 0.78125 
0.40625 1.29688 0.9375 0.390625 1.29688 0.9375 0.375 1.07812 0.921875 
0.359375 1.07812 0.921875 0.59375 1.17188 0.53125 0.609375 1.17188 0.53125 
0.390625 0.9375 0.25 0.359375 0.9375 0.25 0.5625 0.921875 0.25 
0.578125 0.9375 0.203125 0.578125 1.20312 0.515625 0.578125 1.20312 0.5 
0.421875 1.15625 0.90625 0.421875 1.14062 0.90625 0.515625 1.21875 0.609375 
0.53125 1.21875 0.625 0.5 1.25 0.609375 0.515625 1.23438 0.59375 
0.375 1.20312 0.78125 0.375 1.17188 0.796875 0.5 1.23438 0.640625 
0.46875 1.32812 0.71875 0.484375 0.96875 0.359375 
METADATA
INFORMATION 2
NAME L2_NORM_RANGE LOCATION vtkDataArray
DATA 2 0.651958 1.6516 
NAME L2_NORM_FINITE_RANGE LOCATION vtkDataArray
DATA 2 0.651958 1.6516 

CELLS 91 273
2 0 1 
2 0 2 
2 3 4 
2 5 6 
2 7 8 
2 9 10 
2 7 11 
2 12 13 
2 14 15 
2 5 16 
2 17 18 
2 19 20 
2 21 22 
2 23 24 
2 25 26 
2 27 28 
2 29 30 
2 31 32 
2 33 34 
2 21 35 
2 36 37 
2 38 39 
2 40 41 
2 42 43 
2 44 45 
2 46 47 
2 48 49 
2 50 51 
2 52 53 
2 54 55 
2 56 57 
2 58 59 
2 60 61 
2 62 61 
2 63 64 
2 65 66 
2 67 68 
2 69 70 
2 71 72 
2 73 74 
2 75 76 
2 77 78 
2 79 80 
2 81 82 
2 83 84 
2 85 86 
2 87 88 
2 3 0 
2 12 7 
2 89 5 
2 46 21 
2 61 68 
2 14 3 
2 90 12 
2 42 46 
2 68 66 
2 90 14 
2 91 42 
2 66 59 
2 89 90 
2 59 70 
2 19 89 
2 70 64 
2 17 19 
2 64 74 
2 25 17 
2 74 72 
2 9 25 
2 72 80 
2 29 9 
2 80 76 
2 27 29 
2 76 78 
2 23 27 
2 78 82 
2 33 23 
2 82 84 
2 31 33 
2 84 86 
2 36 31 
2 86 54 
2 38 36 
2 54 56 
2 44 38 
2 56 52 
2 91 44 
2 52 50 
2 40 91 
2 50 88 
2 48 40 
2 88 48 

CELL_TYPES 91
3
3
3
3
3
3
3
3
3
3
3
3
3
3
3
3
3
3
3
3
3
3
3
3
3
3
3
3
3
3
3
3
3
3
3
3
3
3
3
3
3
3
3
3
3
3
3
3
3
3
3
3
3
3
3
3
3
3
3
3
3
3
3
3
3
3
3
3
3
3
3
3
3
3
3
3
3
3
3
3
3
3
3
3
3
3
3
3
3
3
3

CELL_DATA 91
SCALARS SegmentationId int
LOOKUP_TABLE default
90 89 88 87 86 85 84 83 82 
81 80 79 78 77 76 75 74 73 
72 71 70 69 68 67 66 65 64 
63 62 61 60 0 1 2 3 4 
5 6 7 8 9 10 11 12 13 
14 15 59 56 57 50 17 58 54 
38 20 53 40 19 33 16 34 21 
51 18 52 23 48 22 55 26 46 
24 47 25 49 27 44 28 45 29 
43 35 42 36 39 37 32 31 41 
30 
METADATA
INFORMATION 0

FIELD FieldData 4
upNodeId 1 91 int
0 2 3 5 7 9 11 12 14 
16 17 19 21 23 25 27 29 31 
33 35 36 38 40 42 44 46 48 
50 52 54 56 59 61 61 64 66 
68 70 72 74 76 78 80 82 84 
86 88 1 8 6 22 68 4 13 
47 66 15 43 59 90 70 89 64 
20 74 18 72 26 80 10 76 30 
78 28 82 24 84 34 86 32 55 
37 57 39 53 45 51 91 88 41 
49 
METADATA
INFORMATION 0

downNodeId 1 91 int
1 1 4 6 8 10 8 13 15 
6 18 20 22 24 26 28 30 32 
34 22 37 39 41 43 45 47 49 
51 53 55 57 58 60 62 63 65 
67 69 71 73 75 77 79 81 83 
85 87 4 13 89 47 61 15 90 
43 68 90 91 66 89 59 20 70 
18 64 26 74 10 72 30 80 28 
76 24 78 34 82 32 84 37 86 
39 55 45 57 91 53 41 51 49 
88 
METADATA
INFORMATION 0

RegionSize 1 91 int
8 15 7 30 31 36 11 9 5 
5 24 5 65 8 14 8 23 34 
13 35 14 8 19 19 4 10 8 
547 445 94 70 7055 83702 18 5 4 
20 1 8 0 11 11 0 2 2 
1 8 50 11 25 19 136879 203 54 
46 53785 3 37 54856 22 2456 226 93878 
203 11247 61 30131 134 472 78 5803 8 
8917 230 7830 15 3970 408 5608 253 615 
45 530 607 131 405 5 303 3192 27 
7946 
METADATA
INFORMATION 0

RegionSpan 1 91 double
0.066291257739 0.056336738169 0.064423523843 0.038273278624 0.15625 0.046875 0.081189878285 0.027063293383 0.034938562661 
0.034938562661 0.064423523843 0.034938562661 0.089758791029 0.051822263747 0.049410589039 0.022097086534 0.049410589039 0.051822263747 
0.034938562661 0.027063293383 0.044194173068 0.046875 0.022097086534 0.071602746844 0.015625 0.034938562661 0.027063293383 
0.068107798696 0.066291257739 0.21875 0.234375 0.49730721116 0.30378472805 0.022097086534 0.027063293383 0.034938562661 
0.058463398367 0.015625 0.015625 0.015625 0.03125 0.051822263747 0.015625 0.015625 0.022097086534 
0.027063293383 0.034938562661 0.15934436023 0.081189878285 0.068107798696 0.10126157105 0.3677688241 0.25911131501 0.23541435599 
0.13441133499 0.37238672376 0.066291257739 0.10597390682 1.4483287334 0.12597277761 1.4432629347 0.21309658885 0.47675457597 
0.13531647623 0.027063293383 0.29106149077 0.47315636277 0.16010861099 0.49138078094 0.27819520235 0.42533305287 0.079672180116 
0.22371596098 0.30698254704 0.74837064743 0.31868872046 0.31171777844 0.49509310722 0.038273278624 0.5504348278 0.80237072706 
0.25242960453 0.11048543453 0.14490029216 0.51986891031 0.6119736433 0.049410589039 0.34728297591 0.60837256908 0.079672180116 
0.83823430538 
METADATA
INFORMATION 0

POINT_DATA 92
FIELD FieldData 2
Scalar 1 92 float
0.639414 0.662211 0.661274 0.60549 0.637565 0.556136 0.623399 0.565366 0.61949 
0.489024 0.606362 0.590756 0.560718 0.586043 0.542867 0.582698 0.579602 0.502828 
0.560043 0.518429 0.556302 0.426185 0.547368 0.472178 0.525624 0.496972 0.520538 
0.48418 0.517256 0.484893 0.516174 0.453045 0.515317 0.471519 0.500498 0.489042 
0.443503 0.487018 0.44115 0.465358 0.393318 0.45215 0.40868 0.451376 0.417788 
0.44297 0.418835 0.442636 0.392596 0.428179 0.191019 0.272679 0.190897 0.272551 
0.184209 0.233942 0.18924 0.23377 0 0.0499103 0.000666965 0.031803 0.00811504 
0.0153611 0.0522334 0.0173716 0.0486622 0.0202329 0.0461267 0.0209753 0.0499237 0.0271616 
0.0629819 0.027881 0.0533481 0.0294757 0.0685098 0.0340759 0.0839278 0.0412733 0.0633472 
0.0846528 0.11163 0.106492 0.134779 0.134028 0.178905 0.216605 0.240534 0.538886 
0.541706 0.401856 
METADATA
INFORMATION 0

ttkMaskScalarField 1 92 char
0 0 0 0 0 0 0 0 0 
0 0 0 0 0 0 0 0 0 
0 0 0 0 0 0 0 0 0 
0 0 0 0 0 0 0 0 0 
0 0 0 0 0 0 0 0 0 
0 0 0 0 0 0 0 0 0 
0 0 0 0 0 0 0 0 0 
0 0 0 0 0 0 0 0 0 
0 0 0 0 0 0 0 0 0 
0 0 0 0 0 0 0 0 0 
0 0 
METADATA
INFORMATION 0

