# vtk DataFile Version 4.2
vtk output
ASCII
DATASET UNSTRUCTURED_GRID
POINTS 66 float
0.46875 1.17188 0.796875 0.46875 1.20312 0.8125 0.46875 1.15625 0.765625 
0.484375 1.14062 0.65625 0.46875 1.07812 0.546875 0.5 1.17188 0.703125 
0.484375 1.17188 0.671875 0.46875 0.984375 0.796875 0.46875 0.9375 0.796875 
0.5 1.1875 0.90625 0.515625 1.15625 0.921875 0.46875 0.953125 0.046875 
0.453125 1.03125 0 0.46875 0.984375 0.890625 0.484375 0.953125 0.890625 
0.5 1.04688 0.953125 0.46875 1.03125 0.984375 0.484375 0.984375 0.546875 
0.484375 0.96875 0.546875 0.46875 0.90625 0.5625 0.46875 0.890625 0.59375 
0.46875 0.953125 0.109375 0.484375 0.953125 0.078125 0.484375 0.890625 0.90625 
0.484375 0.859375 0.921875 0.484375 0.953125 0.40625 0.484375 0.9375 0.390625 
0.46875 0.921875 0.109375 0.421875 1.1875 0.703125 0.40625 1.1875 0.71875 
0.46875 0.859375 0.953125 0.46875 0.828125 0.96875 0.46875 0.90625 0.03125 
0.46875 0.890625 0.015625 0.484375 0.578125 0.75 0.53125 0.53125 0.75 
0.46875 0.578125 0.703125 0.421875 0.53125 0.71875 0.421875 0.53125 0.21875 
0.421875 0.53125 0 0.53125 0.53125 0.296875 0.53125 0.53125 0 
0.46875 0.453125 0 0.3125 0.078125 0.171875 0.234375 1.07812 0.65625 
0.546875 1.15625 0.984375 0.6875 1.09375 0.921875 0.578125 1.1875 0.59375 
0.59375 1.17188 0.578125 0.59375 1.10938 0.921875 0.609375 1.10938 0.9375 
0.359375 1.10938 0.609375 0.359375 1.09375 0.609375 0.59375 1.0625 0.5625 
0.609375 1.07812 0.5625 0.578125 1.125 0.9375 0.59375 1.125 0.9375 
0.40625 1.1875 0.90625 0.421875 1.1875 0.921875 0.40625 0.875 0.234375 
0.375 0.875 0.25 0.390625 1.17188 0.890625 0.375 1.17188 0.890625 
0.546875 0.875 0.234375 0.5625 0.875 0.203125 0.484375 0.890625 0.21875 

METADATA
INFORMATION 2
NAME L2_NORM_RANGE LOCATION vtkDataArray
DATA 2 0.365104 1.614 
NAME L2_NORM_FINITE_RANGE LOCATION vtkDataArray
DATA 2 0.365104 1.614 

CELLS 65 195
2 0 1 
2 0 2 
2 3 4 
2 5 6 
2 7 8 
2 9 10 
2 11 12 
2 13 14 
2 15 16 
2 17 18 
2 19 20 
2 21 22 
2 23 24 
2 25 26 
2 21 27 
2 28 29 
2 30 31 
2 32 33 
2 34 35 
2 36 37 
2 38 39 
2 40 41 
2 42 43 
2 44 45 
2 46 45 
2 47 48 
2 49 50 
2 51 52 
2 53 54 
2 55 56 
2 57 58 
2 59 60 
2 61 62 
2 63 64 
2 5 0 
2 11 21 
2 45 48 
2 3 5 
2 32 11 
2 48 52 
2 9 3 
2 65 32 
2 52 50 
2 7 9 
2 50 58 
2 15 7 
2 58 56 
2 13 15 
2 56 43 
2 17 13 
2 43 62 
2 19 17 
2 62 54 
2 23 19 
2 54 60 
2 25 23 
2 60 64 
2 28 25 
2 64 38 
2 30 28 
2 38 40 
2 65 30 
2 40 34 
2 36 65 
2 34 36 

CELL_TYPES 65
3
3
3
3
3
3
3
3
3
3
3
3
3
3
3
3
3
3
3
3
3
3
3
3
3
3
3
3
3
3
3
3
3
3
3
3
3
3
3
3
3
3
3
3
3
3
3
3
3
3
3
3
3
3
3
3
3
3
3
3
3
3
3
3
3

CELL_DATA 65
SCALARS SegmentationId int
LOOKUP_TABLE default
64 63 62 61 60 59 58 57 56 
55 54 53 52 51 50 49 48 47 
46 45 44 43 0 1 2 3 4 
5 6 7 8 9 10 11 42 32 
13 40 37 14 41 27 16 38 15 
39 19 35 18 36 12 34 21 33 
17 31 20 30 22 29 24 28 26 
23 25 
METADATA
INFORMATION 0

FIELD FieldData 4
upNodeId 1 65 int
0 2 3 5 7 9 11 13 15 
17 19 21 23 25 27 28 30 32 
34 36 38 40 43 45 45 48 50 
52 54 56 58 60 62 64 1 22 
48 6 12 52 4 33 50 10 58 
8 56 16 43 14 62 18 54 20 
60 24 64 26 39 29 41 31 35 
65 37 
METADATA
INFORMATION 0

downNodeId 1 65 int
1 1 4 6 8 10 12 14 16 
18 20 22 24 26 22 29 31 33 
35 37 39 41 42 44 46 47 49 
51 53 55 57 59 61 63 6 12 
45 4 33 48 10 65 52 8 50 
16 58 14 56 18 43 20 62 24 
54 26 60 29 64 31 39 65 41 
37 35 
METADATA
INFORMATION 0

RegionSize 1 65 int
11 7 71 30 6 7 50 11 12 
8 6 9 8 5 5 3 11 2 
450 550 95 75 6934 15559 15789 5 3 
1 9 0 0 13 0 8 190 3 
68047 88 74 9696 11 12 29267 67 123941 
493 25634 32 33608 88 132926 98 12466 383 
9594 246 6067 340 21137 235 328 286 110 
8981 21 
METADATA
INFORMATION 0

RegionSpan 1 65 double
0.034938562661 0.034938562661 0.12693810463 0.034938562661 0.046875 0.038273278624 0.092438749969 0.034938562661 0.046875 
0.015625 0.034938562661 0.034938562661 0.034938562661 0.022097086534 0.03125 0.022097086534 0.034938562661 0.022097086534 
0.066291257739 0.068107798696 0.21875 0.296875 0.44111230969 0.45981058478 0.16609603167 0.027063293383 0.022097086534 
0.015625 0.022097086534 0.015625 0.022097086534 0.034938562661 0.015625 0.034938562661 0.098821178079 0.0625 
0.40924376249 0.058463398367 0.049410589039 0.24902151525 0.25483605266 0.18879759312 0.41280764341 0.23280726373 0.20372506976 
0.17116330564 0.18355219066 0.09375 1.3271136284 0.34410491586 1.3102658987 0.081189878285 0.41398879886 0.34445950389 
0.44028133154 0.50389111042 0.19327057898 0.38337013125 0.37173053622 0.41516655684 0.13441133499 0.73520565033 0.45794847608 
0.57664507627 0.049410589039 
METADATA
INFORMATION 0

POINT_DATA 66
FIELD FieldData 2
Scalar 1 66 float
0.622103 0.667043 0.65066 0.538757 0.606598 0.556304 0.604203 0.52882 0.566591 
0.53683 0.561658 0.435694 0.542585 0.485557 0.532097 0.487519 0.512189 0.480101 
0.507523 0.472807 0.505633 0.442988 0.495906 0.449732 0.487564 0.435458 0.474486 
0.473402 0.418991 0.441217 0.409299 0.440739 0.403971 0.428318 0.190054 0.273176 
0.190499 0.273009 0.18507 0.233949 0.188579 0.233556 0 0.0499171 0.000671579 
0.0263015 0.001905 0.0108724 0.0372801 0.0163642 0.0417154 0.0166655 0.0386383 0.0208946 
0.0591159 0.0212649 0.0495309 0.0237991 0.0490956 0.0255181 0.0654964 0.029454 0.0550095 
0.0479492 0.0728389 0.397556 
METADATA
INFORMATION 0

ttkMaskScalarField 1 66 char
0 0 0 0 0 0 0 0 0 
0 0 0 0 0 0 0 0 0 
0 0 0 0 0 0 0 0 0 
0 0 0 0 0 0 0 0 0 
0 0 0 0 0 0 0 0 0 
0 0 0 0 0 0 0 0 0 
0 0 0 0 0 0 0 0 0 
0 0 0 
METADATA
INFORMATION 0

