# vtk DataFile Version 4.2
vtk output
ASCII
DATASET UNSTRUCTURED_GRID
POINTS 112 float
0.46875 1.20312 0.734375 0.453125 1.39062 0.78125 0.53125 1.3125 0.703125 
0.5 1.21875 0.6875 0.515625 1.4375 0.703125 0.453125 1.26562 0.59375 
0.453125 1.32812 0.578125 0.453125 1.20312 0.625 0.46875 1.21875 0.5625 
0.484375 1.10938 0.53125 0.4375 1.04688 0.015625 0.453125 1.14062 0 
0.46875 0.96875 0.90625 0.484375 1.03125 0.921875 0.46875 1.17188 0.890625 
0.46875 1.20312 0.890625 0.5 1.10938 0.859375 0.484375 0.96875 0.875 
0.46875 0.96875 0.59375 0.46875 0.9375 0.640625 0.4375 1.48438 0.703125 
0.421875 1.51562 0.671875 0.46875 1.07812 0.609375 0.484375 1.01562 0.59375 
0.453125 1.17188 0.625 0.4375 1.20312 0.59375 0.484375 1.10938 0.4375 
0.453125 1.09375 0.421875 0.484375 1.14062 0.875 0.453125 1.03125 0.640625 
0.453125 1.0625 0.984375 0.46875 1.125 0.984375 0.484375 1 0.140625 
0.5 1.04688 0.09375 0.546875 1.29688 0.5625 0.546875 1.28125 0.546875 
0.484375 0.875 0.953125 0.46875 0.96875 0.984375 0.46875 1.03125 0.40625 
0.484375 1.03125 0.390625 0.46875 0.953125 0.484375 0.46875 0.953125 0.46875 
0.484375 0.96875 0.046875 0.484375 0.96875 0.015625 0.46875 1.03125 0.34375 
0.484375 1 0.328125 0.484375 0.921875 0.046875 0.484375 1 0.171875 
0.53125 1.375 0.59375 0.546875 1.375 0.578125 0.484375 0.578125 0.75 
0.53125 0.53125 0.765625 0.46875 0.578125 0.703125 0.421875 0.53125 0.703125 
0.421875 0.53125 0.21875 0.421875 0.53125 0 0.53125 0.53125 0.234375 
0.53125 0.53125 0 0.46875 0.453125 0 0.734375 0.125 0.484375 
0.75 1.20312 0.84375 0.515625 1.39062 0.9375 0.625 1.1875 0.5625 
0.625 1.21875 0.53125 0.453125 1.34375 0.546875 0.453125 1.35938 0.53125 
0.484375 1.39062 0.9375 0.4375 1.21875 0.921875 0.453125 1.20312 0.9375 
0.640625 1.14062 0.765625 0.65625 1.1875 0.78125 0.390625 1.10938 0.546875 
0.359375 1.09375 0.546875 0.609375 1.23438 0.53125 0.625 1.23438 0.515625 
0.359375 1.125 0.921875 0.328125 1.125 0.921875 0.625 1.20312 0.734375 
0.640625 1.20312 0.75 0.453125 1.21875 0.9375 0.609375 1.17188 0.578125 
0.609375 1.17188 0.59375 0.390625 0.96875 0.25 0.359375 0.96875 0.265625 
0.5625 0.96875 0.28125 0.578125 0.96875 0.203125 0.53125 1.25 0.640625 
0.515625 1.26562 0.625 0.515625 1.28125 0.625 0.53125 1.10938 0.03125 
0.5625 1.09375 0 0.59375 1.23438 0.671875 0.609375 1.20312 0.703125 
0.578125 1.26562 0.65625 0.59375 1.26562 0.671875 0.421875 1.0625 0.078125 
0.421875 1.01562 0.09375 0.5 1.32812 0.625 0.5 1.32812 0.609375 
0.515625 1.09375 0.40625 0.515625 1.07812 0.40625 0.375 1.29688 0.765625 
0.390625 1.23438 0.75 0.5 1.25 0.8125 0.484375 1.29688 0.8125 
0.46875 1.26562 0.640625 0.4375 1.14062 0.609375 0.453125 1.0625 0.046875 
0.390625 1.15625 0.890625 0.53125 1.23438 0.640625 0.46875 0.921875 0.859375 
0.46875 0.984375 0.265625 
METADATA
INFORMATION 2
NAME L2_NORM_RANGE LOCATION vtkDataArray
DATA 2 0.651958 1.7546 
NAME L2_NORM_FINITE_RANGE LOCATION vtkDataArray
DATA 2 0.651958 1.7546 

CELLS 111 333
2 0 1 
2 2 3 
2 2 4 
2 5 6 
2 5 7 
2 8 9 
2 10 11 
2 12 13 
2 14 15 
2 16 17 
2 18 19 
2 20 21 
2 22 23 
2 24 25 
2 26 27 
2 16 28 
2 22 29 
2 30 31 
2 32 33 
2 34 35 
2 36 37 
2 38 39 
2 40 41 
2 42 43 
2 44 45 
2 42 46 
2 32 47 
2 48 49 
2 50 51 
2 52 53 
2 54 55 
2 56 57 
2 58 59 
2 60 61 
2 62 63 
2 64 65 
2 66 61 
2 67 68 
2 69 70 
2 71 72 
2 73 74 
2 75 76 
2 77 78 
2 79 68 
2 80 81 
2 82 83 
2 84 85 
2 86 87 
2 88 87 
2 89 90 
2 91 92 
2 93 94 
2 95 96 
2 97 98 
2 99 100 
2 101 102 
2 103 104 
2 105 2 
2 105 5 
2 14 16 
2 106 22 
2 107 42 
2 107 32 
2 61 65 
2 68 108 
2 87 109 
2 0 105 
2 110 14 
2 10 107 
2 65 72 
2 24 0 
2 111 10 
2 72 70 
2 106 24 
2 70 74 
2 8 106 
2 74 78 
2 110 8 
2 78 63 
2 18 110 
2 63 59 
2 12 18 
2 59 76 
2 20 12 
2 76 81 
2 34 20 
2 81 83 
2 36 34 
2 83 108 
2 26 36 
2 108 85 
2 38 26 
2 85 90 
2 40 38 
2 90 109 
2 30 40 
2 109 92 
2 44 30 
2 92 94 
2 111 44 
2 94 96 
2 48 111 
2 96 54 
2 102 48 
2 54 56 
2 104 102 
2 56 50 
2 100 104 
2 50 52 
2 98 100 
2 52 98 

CELL_TYPES 111
3
3
3
3
3
3
3
3
3
3
3
3
3
3
3
3
3
3
3
3
3
3
3
3
3
3
3
3
3
3
3
3
3
3
3
3
3
3
3
3
3
3
3
3
3
3
3
3
3
3
3
3
3
3
3
3
3
3
3
3
3
3
3
3
3
3
3
3
3
3
3
3
3
3
3
3
3
3
3
3
3
3
3
3
3
3
3
3
3
3
3
3
3
3
3
3
3
3
3
3
3
3
3
3
3
3
3
3
3
3
3

CELL_DATA 111
SCALARS SegmentationId int
LOOKUP_TABLE default
110 109 108 107 106 105 104 103 102 
101 100 99 98 97 96 95 94 93 
92 91 90 89 88 87 86 85 84 
83 82 81 80 79 0 1 2 3 
4 5 6 7 8 9 10 11 12 
13 14 15 16 17 18 19 20 21 
22 23 24 77 76 71 68 59 64 
26 29 38 54 72 51 28 78 74 
31 67 30 52 32 75 34 53 27 
70 25 73 33 69 35 63 36 62 
47 66 37 61 39 60 48 65 40 
58 41 49 42 45 55 46 57 44 
56 43 50 
METADATA
INFORMATION 0

FIELD FieldData 4
upNodeId 1 111 int
0 2 4 5 7 8 10 12 14 
16 18 20 22 24 26 28 29 30 
32 34 36 38 40 42 44 46 47 
48 50 52 54 56 59 61 63 65 
61 68 70 72 74 76 78 68 81 
83 85 87 87 90 92 94 96 98 
100 102 104 3 6 17 23 43 33 
65 108 109 105 15 107 72 1 11 
70 25 74 106 78 9 63 110 59 
19 76 13 81 21 83 35 108 37 
85 27 90 39 109 41 92 31 94 
45 96 111 55 49 57 102 51 104 
53 100 98 
METADATA
INFORMATION 0

downNodeId 1 111 int
1 3 3 6 6 9 11 13 15 
17 19 21 23 25 27 17 23 31 
33 35 37 39 41 43 45 43 33 
49 51 53 55 57 58 60 62 64 
66 67 69 71 73 75 77 79 80 
82 84 86 88 89 91 93 95 97 
99 101 103 105 105 15 106 107 107 
61 68 87 1 110 11 65 25 111 
72 106 70 9 74 110 78 19 63 
13 59 21 76 35 81 37 83 27 
108 39 85 41 90 31 109 45 92 
111 94 49 96 102 55 104 57 100 
51 98 53 
METADATA
INFORMATION 0

RegionSize 1 111 int
457 37 20 7 7 51 58 8 30 
38 40 15 7 7 37 8 16 36 
47 3 14 5 9 17 20 6 6 
8 446 542 96 66 7042 156027 4 2 
3 8 16 12 0 11 11 0 0 
8 10 1 1 12 8 2 7 0 
1 15 5 92 0 5 0 1 20 
45401 6 3 168 19 0 19786 111 57 
295 0 28167 63 33482 54 19674 91 35221 
27 100882 203 31318 380 5321 479 450 46 
5073 305 7125 195 2628 240 55 156 778 
247 2105 3490 3618 4027 653 2300 128 492 
85 2545 739 
METADATA
INFORMATION 0

RegionSpan 1 111 double
0.19390115142 0.10004881769 0.12597277761 0.064423523843 0.069877125323 0.11481983215 0.09631896764 0.066291257739 0.03125 
0.14235052466 0.056336738169 0.046875 0.066291257739 0.046875 0.038273278624 0.038273278624 0.058463398367 0.064423523843 
0.068107798696 0.022097086534 0.10004881769 0.022097086534 0.015625 0.03125 0.038273278624 0.046875 0.03125 
0.022097086534 0.068107798696 0.066291257739 0.21875 0.234375 0.64252763987 0.31444704533 0.044194173068 0.022097086534 
0.03125 0.027063293383 0.051822263747 0.034938562661 0.022097086534 0.03125 0.022097086534 0.015625 0.015625 
0.034938562661 0.079672180116 0.027063293383 0.015625 0.046875 0.046875 0.022097086534 0.049410589039 0.015625 
0.015625 0.066291257739 0.049410589039 0.10004881769 0.049410589039 0.076546557248 0.069877125323 0.098821178079 0.11692679673 
0.41221579909 0.091108620167 0.038273278624 0.11267347634 0.25194555521 0.038273278624 0.28211671114 0.11481983215 0.25958198309 
0.38968637586 0.038273278624 0.27153354883 0.09631896764 0.23696485162 0.41984465718 0.21986323595 0.26972931623 1.1002042294 
0.3125 1.1646653414 0.5550724864 0.43470087647 0.25863978267 0.45981058478 0.57833611965 0.65326702595 0.56639277935 
0.73686414957 0.08558165282 0.2390165329 0.11048543453 0.65662193298 0.51206153631 0.10481568426 0.64157706499 0.071602746844 
0.091108620167 0.65289318562 0.51396512985 0.50024408102 0.25291272998 0.11048543453 0.12884704769 0.51986891031 0.46245777607 
0.049410589039 0.32249635458 0.75648242235 
METADATA
INFORMATION 0

POINT_DATA 112
FIELD FieldData 2
Scalar 1 112 float
0.513403 0.688487 0.567831 0.630457 0.597948 0.542299 0.589803 0.57183 0.500362 
0.571478 0.420928 0.555467 0.491757 0.554684 0.505333 0.554619 0.506546 0.553274 
0.492641 0.551576 0.481784 0.551562 0.506652 0.541598 0.505156 0.537609 0.446376 
0.5367 0.534994 0.530506 0.421951 0.506732 0.428332 0.502429 0.466027 0.494465 
0.447863 0.48799 0.436036 0.460619 0.42963 0.45954 0.421961 0.45914 0.416954 
0.459103 0.456573 0.451721 0.336852 0.373192 0.190788 0.27249 0.191735 0.272328 
0.183942 0.234156 0.189426 0.233957 0 0.049906 0.000629522 0.0395944 0.0105214 
0.0491467 0.0147009 0.0430569 0.0171181 0.0172247 0.064498 0.0194325 0.0446969 0.0211058 
0.0446728 0.0213768 0.0466348 0.0225134 0.0548787 0.0227951 0.0483329 0.0368856 0.0491705 
0.070702 0.0507242 0.0788162 0.0617182 0.0929259 0.0742998 0.11017 0.0882929 0.0886775 
0.120222 0.0986047 0.135538 0.112616 0.140777 0.1276 0.155953 0.155102 0.201657 
0.210196 0.23576 0.219825 0.276309 0.22075 0.243025 0.541767 0.505148 0.421196 
0.0796006 0.13516 0.497102 0.409555 
METADATA
INFORMATION 0

ttkMaskScalarField 1 112 char
0 0 0 0 0 0 0 0 0 
0 0 0 0 0 0 0 0 0 
0 0 0 0 0 0 0 0 0 
0 0 0 0 0 0 0 0 0 
0 0 0 0 0 0 0 0 0 
0 0 0 0 0 0 0 0 0 
0 0 0 0 0 0 0 0 0 
0 0 0 0 0 0 0 0 0 
0 0 0 0 0 0 0 0 0 
0 0 0 0 0 0 0 0 0 
0 0 0 0 0 0 0 0 0 
0 0 0 0 0 0 0 0 0 
0 0 0 0 
METADATA
INFORMATION 0

