# vtk DataFile Version 4.2
vtk output
ASCII
DATASET UNSTRUCTURED_GRID
POINTS 121 float
0.46875 1.40625 0.71875 0.46875 1.39062 0.703125 0.484375 1.4375 0.734375 
0.46875 1.4375 0.75 0.484375 1.39062 0.734375 0.453125 1.15625 0.859375 
0.484375 1.17188 0.9375 0.515625 1.32812 0.796875 0.484375 1.21875 0.8125 
0.46875 1.09375 0.78125 0.46875 1.04688 0.765625 0.484375 0.953125 0.78125 
0.46875 1 0.796875 0.484375 1.09375 0.734375 0.484375 1.07812 0.71875 
0.484375 1.17188 0.6875 0.484375 1.15625 0.671875 0.453125 1.39062 0.828125 
0.4375 1.39062 0.8125 0.515625 1.21875 0.578125 0.484375 1.20312 0.578125 
0.46875 1.10938 0.859375 0.46875 1.09375 0.875 0.515625 1.23438 0.578125 
0.515625 1.29688 0.59375 0.53125 1.32812 0.59375 0.46875 0.921875 0.609375 
0.484375 0.9375 0.59375 0.453125 1.20312 0.65625 0.453125 1.1875 0.65625 
0.515625 1.125 0.515625 0.453125 1.14062 0.46875 0.484375 1.09375 0.046875 
0.4375 1.07812 0.078125 0.453125 1.34375 0.859375 0.484375 1.34375 0.875 
0.484375 0.90625 0.546875 0.484375 0.953125 0.546875 0.4375 1.1875 0.625 
0.4375 1.1875 0.640625 0.46875 1.14062 0.640625 0.46875 1.14062 0.625 
0.453125 1.0625 0.421875 0.484375 1.04688 0.390625 0.46875 1 0.5 
0.46875 0.9375 0.515625 0.46875 0.984375 0.046875 0.46875 0.96875 0.015625 
0.515625 1.14062 0 0.46875 1.01562 0.078125 0.484375 1.01562 0.140625 
0.484375 0.9375 0.453125 0.484375 0.921875 0.4375 0.484375 0.984375 0.1875 
0.46875 1 0.328125 0.515625 1.125 0.421875 0.515625 1.14062 0.421875 
0.53125 1.125 0.4375 0.53125 1.14062 0.4375 0.53125 1.125 0.421875 
0.4375 1.10938 0.984375 0.40625 1.14062 0.984375 0.5625 1.28125 0.5625 
0.578125 1.28125 0.5625 0.484375 0.578125 0.75 0.53125 0.53125 0.734375 
0.46875 0.578125 0.734375 0.421875 0.53125 0.765625 0.421875 0.53125 0.265625 
0.421875 0.53125 0 0.53125 0.53125 0.234375 0.53125 0.53125 0 
0.46875 0.453125 0 0.53125 0.0625 0.21875 0.734375 1.23438 0.609375 
0.625 1.21875 0.6875 0.625 1.1875 0.6875 0.625 1.23438 0.84375 
0.625 1.20312 0.828125 0.390625 1.17188 0.578125 0.390625 1.15625 0.578125 
0.296875 1.14062 0.734375 0.28125 1.15625 0.75 0.40625 1.35938 0.53125 
0.40625 1.35938 0.515625 0.390625 1.35938 0.546875 0.390625 1.34375 0.546875 
0.625 1.21875 0.953125 0.625 1.20312 0.953125 0.375 1.14062 0.578125 
0.578125 0.96875 0.25 0.59375 0.96875 0.234375 0.4375 1.17188 0.96875 
0.4375 1.1875 0.96875 0.390625 0.96875 0.203125 0.359375 0.96875 0.171875 
0.4375 1.1875 0.953125 0.515625 1.09375 0.453125 0.546875 1.14062 0.5 
0.53125 1.07812 0.0625 0.5625 1.0625 0 0.546875 1.125 0.5 
0.40625 1.01562 0.375 0.375 0.96875 0.34375 0.5 1.17188 0.46875 
0.5 1.1875 0.46875 0.46875 1.17188 0 0.453125 1.20312 0 
0.5625 1.23438 0.609375 0.578125 1.23438 0.625 0.484375 1.17188 0.453125 
0.484375 1.1875 0.453125 0.375 1.23438 0.71875 0.390625 1.20312 0.71875 
0.46875 1.39062 0.796875 0.46875 1.42188 0.796875 0.328125 1.125 0.53125 
0.40625 1.14062 0.921875 0.5625 1.15625 0.5 0.4375 1.17188 0.609375 
0.484375 1 0.359375 
METADATA
INFORMATION 2
NAME L2_NORM_RANGE LOCATION vtkDataArray
DATA 2 0.577914 1.69601 
NAME L2_NORM_FINITE_RANGE LOCATION vtkDataArray
DATA 2 0.577914 1.69601 

CELLS 120 360
2 0 1 
2 2 3 
2 0 4 
2 5 6 
2 7 8 
2 9 10 
2 11 12 
2 13 14 
2 15 16 
2 17 18 
2 19 20 
2 21 22 
2 19 23 
2 24 25 
2 26 27 
2 28 29 
2 30 31 
2 32 33 
2 34 35 
2 36 37 
2 38 39 
2 40 41 
2 42 43 
2 44 45 
2 46 47 
2 32 48 
2 49 50 
2 51 52 
2 53 54 
2 55 56 
2 57 58 
2 57 59 
2 60 61 
2 62 63 
2 64 65 
2 66 67 
2 68 69 
2 70 71 
2 72 73 
2 74 75 
2 76 75 
2 77 78 
2 79 80 
2 81 82 
2 83 84 
2 85 86 
2 87 88 
2 89 80 
2 90 91 
2 92 93 
2 94 95 
2 96 93 
2 97 98 
2 99 100 
2 101 98 
2 102 103 
2 104 105 
2 106 107 
2 108 109 
2 110 111 
2 112 113 
2 114 115 
2 2 0 
2 24 19 
2 46 32 
2 55 57 
2 75 78 
2 80 116 
2 93 117 
2 98 118 
2 7 2 
2 119 24 
2 49 46 
2 78 88 
2 15 7 
2 53 49 
2 88 82 
2 9 15 
2 120 53 
2 82 84 
2 11 9 
2 84 86 
2 13 11 
2 86 73 
2 17 13 
2 73 116 
2 21 17 
2 116 91 
2 5 21 
2 91 95 
2 28 5 
2 95 118 
2 26 28 
2 118 103 
2 34 26 
2 103 117 
2 36 34 
2 117 100 
2 119 36 
2 100 107 
2 38 119 
2 107 105 
2 40 38 
2 105 70 
2 30 40 
2 70 64 
2 44 30 
2 64 68 
2 42 44 
2 68 109 
2 51 42 
2 109 66 
2 120 51 
2 66 111 
2 115 120 
2 111 113 
2 55 115 
2 113 60 
2 62 55 
2 60 62 

CELL_TYPES 120
3
3
3
3
3
3
3
3
3
3
3
3
3
3
3
3
3
3
3
3
3
3
3
3
3
3
3
3
3
3
3
3
3
3
3
3
3
3
3
3
3
3
3
3
3
3
3
3
3
3
3
3
3
3
3
3
3
3
3
3
3
3
3
3
3
3
3
3
3
3
3
3
3
3
3
3
3
3
3
3
3
3
3
3
3
3
3
3
3
3
3
3
3
3
3
3
3
3
3
3
3
3
3
3
3
3
3
3
3
3
3
3
3
3
3
3
3
3
3
3

CELL_DATA 120
SCALARS SegmentationId int
LOOKUP_TABLE default
119 118 117 116 115 114 113 112 111 
110 109 108 107 106 105 104 103 102 
101 100 99 98 97 96 95 94 93 
92 91 90 89 88 87 86 85 84 
83 82 0 1 2 3 4 5 6 
7 8 9 10 11 12 13 14 15 
16 17 18 19 20 21 22 23 81 
72 66 54 25 27 33 35 80 70 
59 26 78 58 31 74 56 28 77 
29 76 30 75 24 73 44 71 32 
79 34 68 46 69 37 65 45 64 
36 50 39 63 38 62 52 67 51 
60 49 61 40 57 47 43 41 48 
42 55 53 
METADATA
INFORMATION 0

FIELD FieldData 4
upNodeId 1 120 int
0 2 4 5 7 9 11 13 15 
17 19 21 23 24 26 28 30 32 
34 36 38 40 42 44 46 48 49 
51 53 55 57 59 60 62 64 66 
68 70 73 75 75 78 80 82 84 
86 88 80 91 93 95 93 98 100 
98 103 105 107 109 111 113 115 1 
20 33 58 78 116 117 118 3 25 
47 88 8 50 82 16 54 84 10 
86 12 73 14 116 18 91 22 95 
6 118 29 103 27 117 35 100 37 
107 119 105 39 71 41 65 31 69 
45 109 43 67 52 111 120 113 115 
61 56 63 
METADATA
INFORMATION 0

downNodeId 1 120 int
1 3 1 6 8 10 12 14 16 
18 20 22 20 25 27 29 31 33 
35 37 39 41 43 45 47 33 50 
52 54 56 58 58 61 63 65 67 
69 71 72 74 76 77 79 81 83 
85 87 89 90 92 94 96 97 99 
101 102 104 106 108 110 112 114 3 
25 47 56 75 80 93 98 8 119 
50 78 16 54 88 10 120 82 12 
84 14 86 18 73 22 116 6 91 
29 95 27 118 35 103 37 117 119 
100 39 107 41 105 31 71 45 65 
43 69 52 109 120 67 115 111 56 
113 63 61 
METADATA
INFORMATION 0

RegionSize 1 120 int
29 2 12 115 16 28 14 15 3 
10 6 3 4 8 15 0 62 40 
3 4 0 0 17 15 34 13 27 
2 35 0 0 0 9 0 460 544 
80 70 6211 90916 6 21 2 6 0 
0 0 10 10 1 19 0 16 40 
0 18 0 7 2 0 4 5 1 
14 35 0 62262 7 27 0 81 52 
0 4145 294 1 55275 112 72 41299 29 
36207 29 47063 7 132785 149 6942 255 3197 
7 9965 157 984 67 2277 424 727 29 
4196 49 346 156 598 277 14 196 34 
329 7 4 130 1067 1269 2944 1553 1773 
2045 177 3037 
METADATA
INFORMATION 0

RegionSpan 1 120 double
0.022097086534 0.022097086534 0.027063293383 0.08558165282 0.11481983215 0.049410589039 0.051822263747 0.022097086534 0.022097086534 
0.022097086534 0.034938562661 0.022097086534 0.015625 0.034938562661 0.027063293383 0.015625 0.079672180116 0.058463398367 
0.034938562661 0.046875 0.015625 0.015625 0.046875 0.064423523843 0.034938562661 0.0732877478 0.064423523843 
0.022097086534 0.14235052466 0.015625 0.015625 0.015625 0.044194173068 0.015625 0.068107798696 0.0732877478 
0.265625 0.234375 0.45204612613 0.13531647623 0.03125 0.034938562661 0.015625 0.027063293383 0.015625 
0.015625 0.015625 0.022097086534 0.022097086534 0.015625 0.044194173068 0.015625 0.0732877478 0.071602746844 
0.015625 0.064423523843 0.015625 0.034938562661 0.022097086534 0.015625 0.034938562661 0.03125 0.038273278624 
0.079672180116 0.11048543453 0.022097086534 0.14149039984 0.084143199027 0.0732877478 0.022097086534 0.12979099154 0.14823175967 
0.044194173068 0.125 0.19327057898 0.11481983215 0.40202125907 0.12303137034 0.17258375883 0.33438959718 0.14149039984 
0.038273278624 0.14823175967 1.3300536871 0.31289038062 1.1259760857 0.28341183066 0.42790824175 0.049410589039 0.24256522954 
0.20846350491 0.42904782295 0.28555729985 0.30777680874 0.49063494802 0.60394215584 0.53855276108 0.93828094006 0.27687570453 
0.17815241218 0.022097086534 0.47134697437 0.058463398367 0.69754731655 0.13441133499 0.51986891031 0.13441133499 0.49063494802 
0.10126157105 0.80495291948 0.13258251548 0.67423278093 0.11267347634 0.67132973671 0.6079711318 0.28211671114 0.48057988286 
0.28555729985 0.21537576616 0.47238177061 
METADATA
INFORMATION 0

POINT_DATA 121
FIELD FieldData 2
Scalar 1 121 float
0.641903 0.691025 0.63779 0.66659 0.666198 0.501723 0.648972 0.601549 0.634359 
0.534618 0.619775 0.531896 0.583665 0.529443 0.580314 0.550124 0.575645 0.528811 
0.55856 0.530618 0.557339 0.519011 0.554515 0.554497 0.516719 0.539802 0.492867 
0.53301 0.501457 0.531902 0.452741 0.528891 0.431881 0.527736 0.489151 0.512046 
0.471087 0.501152 0.468794 0.496698 0.463051 0.48695 0.43638 0.486077 0.446154 
0.484202 0.410082 0.475321 0.466935 0.410082 0.46193 0.436243 0.458548 0.409995 
0.456218 0.313654 0.351941 0.31425 0.342933 0.337109 0.261904 0.333445 0.310919 
0.333093 0.189416 0.272448 0.191085 0.27233 0.189714 0.234858 0.18932 0.233742 
0 0.0498839 0.000223466 0.0304926 0.00378762 0.00963252 0.0390645 0.0108313 0.0615748 
0.0125115 0.0436805 0.0146393 0.0466202 0.0162246 0.0484722 0.0166624 0.039522 0.0388446 
0.0502438 0.0800239 0.0555239 0.0957354 0.0582754 0.0879847 0.0684699 0.0848065 0.124056 
0.0860507 0.150032 0.0996483 0.100486 0.130219 0.13686 0.184094 0.142577 0.181443 
0.161239 0.189809 0.185415 0.208204 0.197727 0.230847 0.31742 0.341764 0.0691671 
0.145 0.124614 0.470123 0.400705 
METADATA
INFORMATION 0

ttkMaskScalarField 1 121 char
0 0 0 0 0 0 0 0 0 
0 0 0 0 0 0 0 0 0 
0 0 0 0 0 0 0 0 0 
0 0 0 0 0 0 0 0 0 
0 0 0 0 0 0 0 0 0 
0 0 0 0 0 0 0 0 0 
0 0 0 0 0 0 0 0 0 
0 0 0 0 0 0 0 0 0 
0 0 0 0 0 0 0 0 0 
0 0 0 0 0 0 0 0 0 
0 0 0 0 0 0 0 0 0 
0 0 0 0 0 0 0 0 0 
0 0 0 0 0 0 0 0 0 
0 0 0 0 
METADATA
INFORMATION 0

